
     Program PWSCF v.6.7MaX starts on 15Apr2026 at 16: 5: 1 

     This program is part of the open-source Quantum ESPRESSO suite
     for quantum simulation of materials; please cite
         "P. Giannozzi et al., J. Phys.:Condens. Matter 21 395502 (2009);
         "P. Giannozzi et al., J. Phys.:Condens. Matter 29 465901 (2017);
          URL http://www.quantum-espresso.org", 
     in publications or presentations arising from this work. More details at
     http://www.quantum-espresso.org/quote

     Parallel version (MPI), running on     4 processors

     MPI processes distributed on     1 nodes
     R & G space division:  proc/nbgrp/npool/nimage =       4
     Reading input from zno_super.in

     Current dimensions of program PWSCF are:
     Max number of different atomic species (ntypx) = 10
     Max number of k-points (npk) =  40000
     Max angular momentum in pseudopotentials (lmaxx) =  3
     file Zn.UPF: wavefunction(s)  3D renormalized

     Subspace diagonalization in iterative solution of the eigenvalue problem:
     one sub-group per band group will be used
     scalapack distributed-memory algorithm (size of sub-group:  2*  2 procs)

     Found symmetry operation: I + (  0.0000  0.0000 -0.5000)
     This is a supercell, fractional translations are disabled

     Parallelization info
     --------------------
     sticks:   dense  smooth     PW     G-vecs:    dense   smooth      PW
     Min         741     373    105                52363    18511    2729
     Max         742     375    106                52366    18514    2734
     Sum        2965    1495    421               209457    74049   10923



     bravais-lattice index     =            4
     lattice parameter (alat)  =      11.6059  a.u.
     unit-cell volume          =    2168.1150 (a.u.)^3
     number of atoms/cell      =           32
     number of atomic types    =            2
     number of electrons       =       288.00
     number of Kohn-Sham states=          173
     kinetic-energy cutoff     =      40.0000  Ry
     charge density cutoff     =     320.0000  Ry
     scf convergence threshold =      1.0E-08
     mixing beta               =       0.7000
     number of iterations used =            8  plain     mixing
     Exchange-correlation= PBE
                           (   1   4   3   4   0   0   0)

     celldm(1)=  11.605942  celldm(2)=   0.000000  celldm(3)=   1.601439
     celldm(4)=   0.000000  celldm(5)=   0.000000  celldm(6)=   0.000000

     crystal axes: (cart. coord. in units of alat)
               a(1) = (   1.000000   0.000000   0.000000 )  
               a(2) = (  -0.500000   0.866025   0.000000 )  
               a(3) = (   0.000000   0.000000   1.601439 )  

     reciprocal axes: (cart. coord. in units 2 pi/alat)
               b(1) = (  1.000000  0.577350 -0.000000 )  
               b(2) = (  0.000000  1.154701  0.000000 )  
               b(3) = (  0.000000 -0.000000  0.624438 )  


     PseudoPot. # 1 for Zn read from file:
     ../pseudo/Zn.UPF
     MD5 check sum: c4fdec089fdc15c46897c8a96be99b2c
     Pseudo is Ultrasoft + core correction, Zval = 12.0
     Generated using &quot;atomic&quot; code by A. Dal Corso  v.6.2.2
     Using radial grid of 1201 points,  6 beta functions with: 
                l(1) =   0
                l(2) =   0
                l(3) =   1
                l(4) =   1
                l(5) =   2
                l(6) =   2
     Q(r) pseudized with 0 coefficients 


     PseudoPot. # 2 for O  read from file:
     ../pseudo/O.UPF
     MD5 check sum: b15f85fac327ccb5e22ba8b88818af9f
     Pseudo is Ultrasoft + core correction, Zval =  6.0
     Generated using &quot;atomic&quot; code by A. Dal Corso  v.6.3MaX
     Using radial grid of 1095 points,  4 beta functions with: 
                l(1) =   0
                l(2) =   0
                l(3) =   1
                l(4) =   1
     Q(r) pseudized with 0 coefficients 


     atomic species   valence    mass     pseudopotential
        Zn            12.00    65.38000     Zn( 1.00)
        O              6.00    16.00000     O ( 1.00)

      6 Sym. Ops. (no inversion) found


                                    s                        frac. trans.

      isym =  1     identity                                     

 cryst.   s( 1) = (     1          0          0      )
                  (     0          1          0      )
                  (     0          0          1      )

 cart.    s( 1) = (  1.0000000  0.0000000  0.0000000 )
                  (  0.0000000  1.0000000  0.0000000 )
                  (  0.0000000  0.0000000  1.0000000 )


      isym =  2     120 deg rotation - cryst. axis [0,0,1]       

 cryst.   s( 2) = (     0          1          0      )
                  (    -1         -1          0      )
                  (     0          0          1      )

 cart.    s( 2) = ( -0.5000000 -0.8660254  0.0000000 )
                  (  0.8660254 -0.5000000  0.0000000 )
                  (  0.0000000  0.0000000  1.0000000 )


      isym =  3     120 deg rotation - cryst. axis [0,0,-1]      

 cryst.   s( 3) = (    -1         -1          0      )
                  (     1          0          0      )
                  (     0          0          1      )

 cart.    s( 3) = ( -0.5000000  0.8660254  0.0000000 )
                  ( -0.8660254 -0.5000000  0.0000000 )
                  (  0.0000000  0.0000000  1.0000000 )


      isym =  4     inv. 180 deg rotation - cart. axis [1,0,0]   

 cryst.   s( 4) = (    -1          0          0      )
                  (     1          1          0      )
                  (     0          0          1      )

 cart.    s( 4) = ( -1.0000000  0.0000000  0.0000000 )
                  (  0.0000000  1.0000000  0.0000000 )
                  (  0.0000000  0.0000000  1.0000000 )


      isym =  5     inv. 180 deg rotation - cryst. axis [0,1,0]  

 cryst.   s( 5) = (     1          1          0      )
                  (     0         -1          0      )
                  (     0          0          1      )

 cart.    s( 5) = (  0.5000000  0.8660254  0.0000000 )
                  (  0.8660254 -0.5000000  0.0000000 )
                  (  0.0000000  0.0000000  1.0000000 )


      isym =  6     inv. 180 deg rotation - cryst. axis [1,1,0]  

 cryst.   s( 6) = (     0         -1          0      )
                  (    -1          0          0      )
                  (     0          0          1      )

 cart.    s( 6) = (  0.5000000 -0.8660254  0.0000000 )
                  ( -0.8660254 -0.5000000  0.0000000 )
                  (  0.0000000  0.0000000  1.0000000 )


     point group C_3v (3m)  
     there are  3 classes
     the character table:

       E     2C3   3s_v 
A_1    1.00  1.00  1.00
A_2    1.00  1.00 -1.00
E      2.00 -1.00  0.00

     the symmetry operations in each class and the name of the first element:

     E        1
          identity                                               
     2C3      2    3
          120 deg rotation - cryst. axis [0,0,1]                 
     3s_v     4    5    6
          inv. 180 deg rotation - cart. axis [1,0,0]             

   Cartesian axes

     site n.     atom                  positions (alat units)
         1           Zn  tau(   1) = (  -0.0000003   0.2886753   0.0008520  )
         2           Zn  tau(   2) = (  -0.0000003   0.2886753   0.8015717  )
         3           Zn  tau(   3) = (  -0.2500002   0.7216880   0.0008520  )
         4           Zn  tau(   4) = (  -0.2500002   0.7216880   0.8015717  )
         5           Zn  tau(   5) = (   0.4999998   0.2886753   0.0008520  )
         6           Zn  tau(   6) = (   0.4999998   0.2886753   0.8015717  )
         7           Zn  tau(   7) = (   0.2499998   0.7216880   0.0008520  )
         8           Zn  tau(   8) = (   0.2499998   0.7216880   0.8015717  )
         9           Zn  tau(   9) = (   0.2500003   0.1443374   0.4012119  )
        10           Zn  tau(  10) = (   0.2500003   0.1443374   1.2019316  )
        11           Zn  tau(  11) = (   0.0000002   0.5773501   0.4012119  )
        12           Zn  tau(  12) = (   0.0000002   0.5773501   1.2019316  )
        13           Zn  tau(  13) = (   0.7500002   0.1443374   0.4012119  )
        14           Zn  tau(  14) = (   0.7500002   0.1443374   1.2019316  )
        15           Zn  tau(  15) = (   0.5000002   0.5773501   0.4012119  )
        16           Zn  tau(  16) = (   0.5000002   0.5773501   1.2019316  )
        17           O   tau(  17) = (  -0.0000003   0.2886753   0.3050229  )
        18           O   tau(  18) = (  -0.0000003   0.2886753   1.1057426  )
        19           O   tau(  19) = (  -0.2500002   0.7216880   0.3050229  )
        20           O   tau(  20) = (  -0.2500002   0.7216880   1.1057426  )
        21           O   tau(  21) = (   0.4999998   0.2886753   0.3050229  )
        22           O   tau(  22) = (   0.4999998   0.2886753   1.1057426  )
        23           O   tau(  23) = (   0.2499998   0.7216880   0.3050229  )
        24           O   tau(  24) = (   0.2499998   0.7216880   1.1057426  )
        25           O   tau(  25) = (   0.2500003   0.1443374   0.7053827  )
        26           O   tau(  26) = (   0.2500003   0.1443374   1.5061024  )
        27           O   tau(  27) = (   0.0000002   0.5773501   0.7053827  )
        28           O   tau(  28) = (   0.0000002   0.5773501   1.5061024  )
        29           O   tau(  29) = (   0.7500002   0.1443374   0.7053827  )
        30           O   tau(  30) = (   0.7500002   0.1443374   1.5061024  )
        31           O   tau(  31) = (   0.5000002   0.5773501   0.7053827  )
        32           O   tau(  32) = (   0.5000002   0.5773501   1.5061024  )

   Crystallographic axes

     site n.     atom                  positions (cryst. coord.)
         1           Zn  tau(   1) = (  0.1666665  0.3333335  0.0005320  )
         2           Zn  tau(   2) = (  0.1666665  0.3333335  0.5005321  )
         3           Zn  tau(   3) = (  0.1666665  0.8333335  0.0005320  )
         4           Zn  tau(   4) = (  0.1666665  0.8333335  0.5005321  )
         5           Zn  tau(   5) = (  0.6666665  0.3333335  0.0005320  )
         6           Zn  tau(   6) = (  0.6666665  0.3333335  0.5005321  )
         7           Zn  tau(   7) = (  0.6666665  0.8333335  0.0005320  )
         8           Zn  tau(   8) = (  0.6666665  0.8333335  0.5005321  )
         9           Zn  tau(   9) = (  0.3333335  0.1666665  0.2505321  )
        10           Zn  tau(  10) = (  0.3333335  0.1666665  0.7505321  )
        11           Zn  tau(  11) = (  0.3333335  0.6666665  0.2505321  )
        12           Zn  tau(  12) = (  0.3333335  0.6666665  0.7505321  )
        13           Zn  tau(  13) = (  0.8333335  0.1666665  0.2505321  )
        14           Zn  tau(  14) = (  0.8333335  0.1666665  0.7505321  )
        15           Zn  tau(  15) = (  0.8333335  0.6666665  0.2505321  )
        16           Zn  tau(  16) = (  0.8333335  0.6666665  0.7505321  )
        17           O   tau(  17) = (  0.1666665  0.3333335  0.1904680  )
        18           O   tau(  18) = (  0.1666665  0.3333335  0.6904680  )
        19           O   tau(  19) = (  0.1666665  0.8333335  0.1904680  )
        20           O   tau(  20) = (  0.1666665  0.8333335  0.6904680  )
        21           O   tau(  21) = (  0.6666665  0.3333335  0.1904680  )
        22           O   tau(  22) = (  0.6666665  0.3333335  0.6904680  )
        23           O   tau(  23) = (  0.6666665  0.8333335  0.1904680  )
        24           O   tau(  24) = (  0.6666665  0.8333335  0.6904680  )
        25           O   tau(  25) = (  0.3333335  0.1666665  0.4404679  )
        26           O   tau(  26) = (  0.3333335  0.1666665  0.9404680  )
        27           O   tau(  27) = (  0.3333335  0.6666665  0.4404679  )
        28           O   tau(  28) = (  0.3333335  0.6666665  0.9404680  )
        29           O   tau(  29) = (  0.8333335  0.1666665  0.4404679  )
        30           O   tau(  30) = (  0.8333335  0.1666665  0.9404680  )
        31           O   tau(  31) = (  0.8333335  0.6666665  0.4404679  )
        32           O   tau(  32) = (  0.8333335  0.6666665  0.9404680  )

     number of k points=    13  Marzari-Vanderbilt smearing, width (Ry)=  0.0100
                       cart. coord. in units 2pi/alat
        k(    1) = (   0.0000000   0.0000000   0.0000000), wk =   0.0312500
        k(    2) = (   0.0000000   0.0000000   0.1561096), wk =   0.0625000
        k(    3) = (   0.0000000   0.0000000  -0.3122191), wk =   0.0312500
        k(    4) = (   0.0000000   0.2886751   0.0000000), wk =   0.1875000
        k(    5) = (   0.0000000   0.2886751   0.1561096), wk =   0.1875000
        k(    6) = (   0.0000000   0.2886751  -0.3122191), wk =   0.1875000
        k(    7) = (   0.0000000  -0.5773503   0.0000000), wk =   0.0937500
        k(    8) = (   0.0000000  -0.5773503   0.1561096), wk =   0.1875000
        k(    9) = (   0.0000000  -0.5773503  -0.3122191), wk =   0.0937500
        k(   10) = (   0.2500000   0.4330127   0.0000000), wk =   0.1875000
        k(   11) = (   0.2500000   0.4330127   0.1561096), wk =   0.3750000
        k(   12) = (   0.2500000   0.4330127  -0.3122191), wk =   0.1875000
        k(   13) = (   0.0000000  -0.2886751   0.1561096), wk =   0.1875000

                       cryst. coord.
        k(    1) = (   0.0000000   0.0000000   0.0000000), wk =   0.0312500
        k(    2) = (   0.0000000   0.0000000   0.2500000), wk =   0.0625000
        k(    3) = (   0.0000000   0.0000000  -0.5000000), wk =   0.0312500
        k(    4) = (   0.0000000   0.2500000   0.0000000), wk =   0.1875000
        k(    5) = (   0.0000000   0.2500000   0.2500000), wk =   0.1875000
        k(    6) = (   0.0000000   0.2500000  -0.5000000), wk =   0.1875000
        k(    7) = (   0.0000000  -0.5000000   0.0000000), wk =   0.0937500
        k(    8) = (   0.0000000  -0.5000000   0.2500000), wk =   0.1875000
        k(    9) = (   0.0000000  -0.5000000  -0.5000000), wk =   0.0937500
        k(   10) = (   0.2500000   0.2500000   0.0000000), wk =   0.1875000
        k(   11) = (   0.2500000   0.2500000   0.2500000), wk =   0.3750000
        k(   12) = (   0.2500000   0.2500000  -0.5000000), wk =   0.1875000
        k(   13) = (   0.0000000  -0.2500000   0.2500000), wk =   0.1875000

     Dense  grid:   209457 G-vectors     FFT dimensions: (  72,  72, 108)

     Smooth grid:    74049 G-vectors     FFT dimensions: (  48,  48,  75)

     Dynamical RAM for                 wfc:       6.11 MB

     Dynamical RAM for     wfc (w. buffer):      85.55 MB

     Dynamical RAM for           str. fact:       1.60 MB

     Dynamical RAM for           local pot:       0.00 MB

     Dynamical RAM for          nlocal pot:      14.69 MB

     Dynamical RAM for                qrad:       2.87 MB

     Dynamical RAM for          rho,v,vnew:       5.60 MB

     Dynamical RAM for               rhoin:       1.87 MB

     Dynamical RAM for            rho*nmix:      12.78 MB

     Dynamical RAM for           G-vectors:       3.14 MB

     Dynamical RAM for          h,s,v(r/c):       1.37 MB

     Dynamical RAM for          <psi|beta>:       1.10 MB

     Dynamical RAM for                 psi:      12.22 MB

     Dynamical RAM for                hpsi:      12.22 MB

     Dynamical RAM for                spsi:      12.22 MB

     Dynamical RAM for      wfcinit/wfcrot:      15.69 MB

     Dynamical RAM for           addusdens:     161.40 MB

     Estimated static dynamical RAM per process >     135.84 MB

     Estimated max dynamical RAM per process >     297.24 MB

     Estimated total dynamical RAM >       1.16 GB

     Check: negative core charge=   -0.000001

     Initial potential from superposition of free atoms

     starting charge  287.94038, renormalised to  288.00000
     Starting wfcs are  208 randomized atomic wfcs

     total cpu time spent up to now is       39.9 secs

     Self-consistent Calculation

     iteration #  1     ecut=    40.00 Ry     beta= 0.70
     Davidson diagonalization with overlap
     ethr =  1.00E-02,  avg # of iterations =  3.5

     total cpu time spent up to now is      154.5 secs

     total energy              =   -2889.61110341 Ry
     estimated scf accuracy    <       5.91718388 Ry

     iteration #  2     ecut=    40.00 Ry     beta= 0.70
     Davidson diagonalization with overlap
     ethr =  2.05E-03,  avg # of iterations =  4.0

     total cpu time spent up to now is      315.0 secs

     total energy              =   -2891.40271820 Ry
     estimated scf accuracy    <       5.40940700 Ry

     iteration #  3     ecut=    40.00 Ry     beta= 0.70
     Davidson diagonalization with overlap
     ethr =  1.88E-03,  avg # of iterations =  2.0

     total cpu time spent up to now is      404.6 secs

     total energy              =   -2892.02604899 Ry
     estimated scf accuracy    <       0.25709862 Ry

     iteration #  4     ecut=    40.00 Ry     beta= 0.70
     Davidson diagonalization with overlap
     ethr =  8.93E-05,  avg # of iterations =  6.5

     total cpu time spent up to now is      564.8 secs

     total energy              =   -2892.37517841 Ry
     estimated scf accuracy    <       0.21364064 Ry

     iteration #  5     ecut=    40.00 Ry     beta= 0.70
     Davidson diagonalization with overlap
     ethr =  7.42E-05,  avg # of iterations =  2.0

     total cpu time spent up to now is      634.8 secs

     total energy              =   -2892.40698645 Ry
     estimated scf accuracy    <       0.00389040 Ry

     iteration #  6     ecut=    40.00 Ry     beta= 0.70
     Davidson diagonalization with overlap
     ethr =  1.35E-06,  avg # of iterations = 13.4

     total cpu time spent up to now is      825.7 secs

     total energy              =   -2892.42018595 Ry
     estimated scf accuracy    <       0.00596401 Ry

     iteration #  7     ecut=    40.00 Ry     beta= 0.70
     Davidson diagonalization with overlap
     ethr =  1.35E-06,  avg # of iterations =  1.3

     total cpu time spent up to now is      881.0 secs

     total energy              =   -2892.41985226 Ry
     estimated scf accuracy    <       0.00194450 Ry

     iteration #  8     ecut=    40.00 Ry     beta= 0.70
     Davidson diagonalization with overlap
     ethr =  6.75E-07,  avg # of iterations =  2.0

     total cpu time spent up to now is      953.3 secs

     total energy              =   -2892.42015322 Ry
     estimated scf accuracy    <       0.00011948 Ry

     iteration #  9     ecut=    40.00 Ry     beta= 0.70
     Davidson diagonalization with overlap
     ethr =  4.15E-08,  avg # of iterations =  4.0

     total cpu time spent up to now is     1049.0 secs

     total energy              =   -2892.42020581 Ry
     estimated scf accuracy    <       0.00000134 Ry

     iteration # 10     ecut=    40.00 Ry     beta= 0.70
     Davidson diagonalization with overlap
     ethr =  4.66E-10,  avg # of iterations =  6.9

     total cpu time spent up to now is     1208.4 secs

     total energy              =   -2892.42020884 Ry
     estimated scf accuracy    <       0.00003300 Ry

     iteration # 11     ecut=    40.00 Ry     beta= 0.70
     Davidson diagonalization with overlap
     ethr =  4.66E-10,  avg # of iterations =  2.0

     total cpu time spent up to now is     1272.1 secs

     total energy              =   -2892.42019911 Ry
     estimated scf accuracy    <       0.00002420 Ry

     iteration # 12     ecut=    40.00 Ry     beta= 0.70
     Davidson diagonalization with overlap
     ethr =  4.66E-10,  avg # of iterations =  5.9

     total cpu time spent up to now is     1414.0 secs

     total energy              =   -2892.42020305 Ry
     estimated scf accuracy    <       0.00000026 Ry

     iteration # 13     ecut=    40.00 Ry     beta= 0.70
     Davidson diagonalization with overlap
     ethr =  9.06E-11,  avg # of iterations =  2.2

     total cpu time spent up to now is     1480.9 secs

     total energy              =   -2892.42020308 Ry
     estimated scf accuracy    <       0.00000002 Ry

     iteration # 14     ecut=    40.00 Ry     beta= 0.70
     Davidson diagonalization with overlap
     ethr =  7.26E-12,  avg # of iterations =  5.4

     total cpu time spent up to now is     1626.6 secs

     total energy              =   -2892.42020310 Ry
     estimated scf accuracy    <       0.00000002 Ry

     iteration # 15     ecut=    40.00 Ry     beta= 0.70
     Davidson diagonalization with overlap
     ethr =  7.26E-12,  avg # of iterations =  1.3

     total cpu time spent up to now is     1694.7 secs

     End of self-consistent calculation

          k = 0.0000 0.0000 0.0000 (  9235 PWs)   bands (ev):

    -9.5468  -9.0514  -9.0514  -8.5851  -8.5851  -8.5851  -8.5174  -8.4108
    -8.4108  -8.4108  -8.4108  -8.4108  -8.4108  -8.2702  -8.2702  -8.2701
     2.6172   2.6172   2.6172   2.6172   2.6172   2.6172   2.9485   2.9485
     2.9485   2.9867   2.9868   3.0032   3.0131   3.0131   3.0131   3.4013
     3.4013   3.4844   3.4897   3.4897   3.4897   3.4897   3.6519   3.6519
     3.7395   3.7395   3.7395   4.0015   4.0015   4.0015   4.0165   4.0165
     4.0165   4.0165   4.0165   4.0165   4.0289   4.0290   4.0290   4.0290
     4.0290   4.0290   4.2714   4.2714   4.2714   4.4405   4.4405   4.4405
     5.1689   5.1689   5.1985   5.1985   5.1985   5.3623   5.3624   5.3624
     5.3624   5.4218   5.4218   5.4218   5.4604   5.4604   5.4604   5.4604
     5.4604   5.4604   5.4852   5.4852   5.5569   5.5569   5.5569   5.5593
     5.5593   5.5593   5.5593   5.5593   5.5594   5.6438   5.6438   5.6438
     5.8423   5.9403   5.9403   5.9403   6.0001   6.0001   6.0001   6.0001
     6.0001   6.0002   6.1816   6.1816   6.1816   6.7921   6.7921   6.7921
     7.2394   7.2394   7.2394   7.7686   7.7687   8.2163   8.2163   8.2163
     8.2163   8.2163   8.2163   8.4462   8.4462   8.4462   8.4462   8.4462
     8.4462   8.5661   8.5661   8.5661   9.0415   9.0415   9.0415   9.1035
     9.1036   9.6146   9.6146   9.6147   9.6147   9.9807  10.1289  10.1290
    11.1432  13.9578  13.9578  15.9436  16.0821  16.0821  16.0821  16.0821
    16.0821  16.0821  16.6167  16.6168  16.6168  17.1614  17.1614  17.1614
    17.9152  17.9152  17.9152  18.9467  19.5224  19.5224  19.5225  19.5225
    19.5225  19.5225  19.7251  19.7251  19.7251

     occupation numbers 
     1.0000   1.0000   1.0000   1.0000   1.0000   1.0000   1.0000   1.0000
     1.0000   1.0000   1.0000   1.0000   1.0000   1.0000   1.0000   1.0000
     1.0000   1.0000   1.0000   1.0000   1.0000   1.0000   1.0000   1.0000
     1.0000   1.0000   1.0000   1.0000   1.0000   1.0000   1.0000   1.0000
     1.0000   1.0000   1.0000   1.0000   1.0000   1.0000   1.0000   1.0000
     1.0000   1.0000   1.0000   1.0000   1.0000   1.0000   1.0000   1.0000
     1.0000   1.0000   1.0000   1.0000   1.0000   1.0000   1.0000   1.0000
     1.0000   1.0000   1.0000   1.0000   1.0000   1.0000   1.0000   1.0000
     1.0000   1.0000   1.0000   1.0000   1.0000   1.0000   1.0000   1.0000
     1.0000   1.0000   1.0000   1.0000   1.0000   1.0000   1.0000   1.0000
     1.0000   1.0000   1.0000   1.0000   1.0000   1.0000   1.0000   1.0000
     1.0000   1.0000   1.0000   1.0000   1.0000   1.0000   1.0000   1.0000
     1.0000   1.0000   1.0000   1.0000   1.0000   1.0000   1.0000   1.0000
     1.0000   1.0000   1.0000   1.0000   1.0000   1.0000   1.0000   1.0000
     1.0000   1.0000   1.0000   1.0000   1.0000   1.0000   1.0000   1.0000
     1.0000   1.0000   1.0000   1.0000   1.0000   1.0000   1.0000   1.0000
     1.0000   1.0000   1.0000   1.0000   1.0000   1.0000   1.0000   1.0000
     1.0000   1.0000   1.0000   1.0000   1.0000   1.0663   0.4602   0.4601
     0.0000   0.0000   0.0000   0.0000   0.0000   0.0000   0.0000   0.0000
     0.0000   0.0000   0.0000   0.0000   0.0000   0.0000   0.0000   0.0000
     0.0000   0.0000   0.0000   0.0000   0.0000   0.0000   0.0000   0.0000
     0.0000   0.0000   0.0000   0.0000   0.0000

          k = 0.0000 0.0000 0.1561 (  9241 PWs)   bands (ev):

    -9.5104  -9.2453  -8.8518  -8.5708  -8.5708  -8.5708  -8.5595  -8.4740
    -8.4740  -8.4740  -8.3526  -8.3526  -8.3526  -8.2795  -8.2795  -8.2795
     2.6614   2.6614   2.6614   2.6703   2.6703   2.6703   2.9019   2.9019
     2.9019   2.9079   2.9449   2.9449   2.9449   2.9674   3.1333   3.4052
     3.4052   3.4332   3.4478   3.4478   3.5421   3.5421   3.6365   3.6365
     3.7588   3.7588   3.7588   3.9074   3.9075   3.9075   3.9777   3.9777
     3.9777   3.9859   3.9859   3.9859   4.0797   4.0797   4.0797   4.1673
     4.1673   4.1673   4.2372   4.2372   4.2372   4.4032   4.4033   4.4033
     5.1857   5.1857   5.2545   5.2545   5.2545   5.2957   5.2957   5.4190
     5.4191   5.4242   5.4242   5.4242   5.4432   5.4432   5.4432   5.4768
     5.4768   5.4768   5.4790   5.4790   5.4839   5.4839   5.4839   5.5433
     5.5433   5.5434   5.6130   5.6130   5.6130   5.6451   5.6451   5.6451
     5.9486   5.9486   5.9487   5.9836   5.9836   5.9836   6.0191   6.0222
     6.0222   6.0222   6.1305   6.1305   6.1305   6.9933   6.9933   6.9933
     7.0992   7.3270   7.3270   7.3270   7.8719   7.8719   7.8719   7.9898
     7.9898   7.9898   8.4323   8.5402   8.5402   8.5402   8.6212   8.6212
     8.6212   8.6954   8.6954   8.6954   8.9817   8.9817   8.9817   9.1418
     9.1418   9.4179   9.4179   9.6440   9.8112   9.8112  10.0875  10.0876
    11.5422  13.1279  14.7227  15.7870  15.8941  15.8941  15.8941  16.3615
    16.3616  16.3616  16.4593  16.4593  16.4593  17.0814  17.0814  17.0814
    18.2181  18.2182  18.2182  19.0708  19.1809  19.1809  19.1809  19.7377
    19.7377  19.7377  19.7535  19.7536  19.7536

     occupation numbers 
     1.0000   1.0000   1.0000   1.0000   1.0000   1.0000   1.0000   1.0000
     1.0000   1.0000   1.0000   1.0000   1.0000   1.0000   1.0000   1.0000
     1.0000   1.0000   1.0000   1.0000   1.0000   1.0000   1.0000   1.0000
     1.0000   1.0000   1.0000   1.0000   1.0000   1.0000   1.0000   1.0000
     1.0000   1.0000   1.0000   1.0000   1.0000   1.0000   1.0000   1.0000
     1.0000   1.0000   1.0000   1.0000   1.0000   1.0000   1.0000   1.0000
     1.0000   1.0000   1.0000   1.0000   1.0000   1.0000   1.0000   1.0000
     1.0000   1.0000   1.0000   1.0000   1.0000   1.0000   1.0000   1.0000
     1.0000   1.0000   1.0000   1.0000   1.0000   1.0000   1.0000   1.0000
     1.0000   1.0000   1.0000   1.0000   1.0000   1.0000   1.0000   1.0000
     1.0000   1.0000   1.0000   1.0000   1.0000   1.0000   1.0000   1.0000
     1.0000   1.0000   1.0000   1.0000   1.0000   1.0000   1.0000   1.0000
     1.0000   1.0000   1.0000   1.0000   1.0000   1.0000   1.0000   1.0000
     1.0000   1.0000   1.0000   1.0000   1.0000   1.0000   1.0000   1.0000
     1.0000   1.0000   1.0000   1.0000   1.0000   1.0000   1.0000   1.0000
     1.0000   1.0000   1.0000   1.0000   1.0000   1.0000   1.0000   1.0000
     1.0000   1.0000   1.0000   1.0000   1.0000   1.0000   1.0000   1.0000
     1.0000   1.0000   1.0000   1.0001   1.0135   1.0135   0.6869   0.6868
     0.0000   0.0000   0.0000   0.0000   0.0000   0.0000   0.0000   0.0000
     0.0000   0.0000   0.0000   0.0000   0.0000   0.0000   0.0000   0.0000
     0.0000   0.0000   0.0000   0.0000   0.0000   0.0000   0.0000   0.0000
     0.0000   0.0000   0.0000   0.0000   0.0000

          k = 0.0000 0.0000-0.3122 (  9278 PWs)   bands (ev):

    -9.4055  -9.4054  -8.6780  -8.6780  -8.5311  -8.5310  -8.5310  -8.5310
    -8.5310  -8.5310  -8.3075  -8.3075  -8.3075  -8.3074  -8.3074  -8.3074
     2.7872   2.7872   2.7872   2.7872   2.7872   2.7872   2.7931   2.7931
     2.7931   2.7931   2.7931   2.7931   2.9107   2.9108   3.3007   3.3007
     3.4201   3.4201   3.4201   3.4201   3.5956   3.5957   3.5957   3.5957
     3.8155   3.8155   3.8155   3.8155   3.8155   3.8155   3.9679   3.9679
     3.9679   3.9679   3.9679   3.9679   4.1600   4.1600   4.1600   4.1600
     4.1600   4.1600   4.3020   4.3020   4.3020   4.3020   4.3020   4.3020
     5.2319   5.2319   5.2319   5.2319   5.3686   5.3686   5.3686   5.3686
     5.3686   5.3686   5.4313   5.4313   5.4313   5.4313   5.4313   5.4313
     5.4581   5.4581   5.4581   5.4582   5.5136   5.5136   5.5136   5.5136
     5.5136   5.5136   5.6393   5.6393   5.6394   5.6394   5.6394   5.6394
     5.9660   5.9660   5.9660   5.9660   5.9661   5.9661   6.0627   6.0627
     6.0627   6.0627   6.0627   6.0627   6.4809   6.4809   7.4528   7.4528
     7.4528   7.4528   7.4528   7.4528   7.5570   7.5570   7.5570   7.5570
     7.5570   7.5570   8.7169   8.7169   8.7169   8.7169   8.7169   8.7169
     8.8062   8.8062   8.8062   8.8063   8.8063   8.8063   9.0631   9.0631
     9.2526   9.2527   9.2527   9.2527   9.9784   9.9785   9.9785   9.9785
    12.2935  12.2935  15.3554  15.3555  16.0090  16.0090  16.0091  16.0091
    16.0091  16.0091  16.8362  16.8362  16.8362  16.8362  16.8362  16.8362
    18.7319  18.7319  18.7319  18.7319  18.7319  18.7319  19.4401  19.4401
    19.7970  19.7970  19.7970  19.7970  19.7970

     occupation numbers 
     1.0000   1.0000   1.0000   1.0000   1.0000   1.0000   1.0000   1.0000
     1.0000   1.0000   1.0000   1.0000   1.0000   1.0000   1.0000   1.0000
     1.0000   1.0000   1.0000   1.0000   1.0000   1.0000   1.0000   1.0000
     1.0000   1.0000   1.0000   1.0000   1.0000   1.0000   1.0000   1.0000
     1.0000   1.0000   1.0000   1.0000   1.0000   1.0000   1.0000   1.0000
     1.0000   1.0000   1.0000   1.0000   1.0000   1.0000   1.0000   1.0000
     1.0000   1.0000   1.0000   1.0000   1.0000   1.0000   1.0000   1.0000
     1.0000   1.0000   1.0000   1.0000   1.0000   1.0000   1.0000   1.0000
     1.0000   1.0000   1.0000   1.0000   1.0000   1.0000   1.0000   1.0000
     1.0000   1.0000   1.0000   1.0000   1.0000   1.0000   1.0000   1.0000
     1.0000   1.0000   1.0000   1.0000   1.0000   1.0000   1.0000   1.0000
     1.0000   1.0000   1.0000   1.0000   1.0000   1.0000   1.0000   1.0000
     1.0000   1.0000   1.0000   1.0000   1.0000   1.0000   1.0000   1.0000
     1.0000   1.0000   1.0000   1.0000   1.0000   1.0000   1.0000   1.0000
     1.0000   1.0000   1.0000   1.0000   1.0000   1.0000   1.0000   1.0000
     1.0000   1.0000   1.0000   1.0000   1.0000   1.0000   1.0000   1.0000
     1.0000   1.0000   1.0000   1.0000   1.0000   1.0000   1.0000   1.0000
     1.0000   1.0000   1.0000   1.0000   1.0687   1.0687   1.0687   1.0687
     0.0000   0.0000   0.0000   0.0000   0.0000   0.0000   0.0000   0.0000
     0.0000   0.0000   0.0000   0.0000   0.0000   0.0000   0.0000   0.0000
     0.0000   0.0000   0.0000   0.0000   0.0000   0.0000   0.0000   0.0000
     0.0000   0.0000   0.0000   0.0000   0.0000

          k = 0.0000 0.2887 0.0000 (  9246 PWs)   bands (ev):

    -9.4301  -8.9626  -8.9626  -8.7709  -8.5941  -8.5941  -8.5101  -8.5101
    -8.4666  -8.4135  -8.4134  -8.4134  -8.4134  -8.2718  -8.2655  -8.2655
     2.6488   2.6488   2.7354   2.7354   2.7354   2.7354   2.8309   2.9225
     2.9225   2.9985   2.9985   3.1279   3.2336   3.2389   3.2389   3.2853
     3.4636   3.5382   3.5382   3.5393   3.5656   3.5656   3.6362   3.6834
     3.6835   3.7079   3.7401   3.8286   3.8286   3.8286   3.8286   3.8853
     3.9076   3.9076   3.9345   3.9345   3.9489   3.9489   4.1203   4.1203
     4.1203   4.1203   4.2433   4.2858   4.3129   4.3129   4.4414   4.4415
     5.0585   5.1126   5.1502   5.1502   5.1624   5.2552   5.2552   5.3242
     5.3581   5.3581   5.3600   5.3600   5.3786   5.3786   5.3786   5.3786
     5.4166   5.4166   5.4311   5.4311   5.4970   5.5136   5.5298   5.5430
     5.5650   5.5650   5.6103   5.6103   5.6103   5.6103   5.6505   5.6505
     5.8288   5.8833   5.8833   5.9733   6.1733   6.1733   6.1733   6.1733
     6.3632   6.4401   6.4401   6.5322   6.5322   6.6622   6.6622   7.1929
     7.1929   7.3378   7.5601   7.7690   7.7690   7.8375   7.8375   7.8375
     7.8375   8.4288   8.4288   8.4430   8.4430   8.4961   8.4961   8.4963
     8.5078   8.5078   8.5078   8.5078   8.8488   8.8488   8.8500   8.8935
     9.1451   9.1451   9.2239   9.3433   9.4246   9.4246   9.8498   9.9867
    12.1510  14.4357  14.4357  15.3541  15.9033  15.9033  16.5224  16.5224
    16.5224  16.5224  16.5602  16.5603  16.6472  17.9320  17.9320  18.0995
    18.0995  18.1012  18.2082  18.8798  19.5679  19.5679  19.5680  19.5680
    19.6670  19.6849  19.6849  19.7244  19.7244

     occupation numbers 
     1.0000   1.0000   1.0000   1.0000   1.0000   1.0000   1.0000   1.0000
     1.0000   1.0000   1.0000   1.0000   1.0000   1.0000   1.0000   1.0000
     1.0000   1.0000   1.0000   1.0000   1.0000   1.0000   1.0000   1.0000
     1.0000   1.0000   1.0000   1.0000   1.0000   1.0000   1.0000   1.0000
     1.0000   1.0000   1.0000   1.0000   1.0000   1.0000   1.0000   1.0000
     1.0000   1.0000   1.0000   1.0000   1.0000   1.0000   1.0000   1.0000
     1.0000   1.0000   1.0000   1.0000   1.0000   1.0000   1.0000   1.0000
     1.0000   1.0000   1.0000   1.0000   1.0000   1.0000   1.0000   1.0000
     1.0000   1.0000   1.0000   1.0000   1.0000   1.0000   1.0000   1.0000
     1.0000   1.0000   1.0000   1.0000   1.0000   1.0000   1.0000   1.0000
     1.0000   1.0000   1.0000   1.0000   1.0000   1.0000   1.0000   1.0000
     1.0000   1.0000   1.0000   1.0000   1.0000   1.0000   1.0000   1.0000
     1.0000   1.0000   1.0000   1.0000   1.0000   1.0000   1.0000   1.0000
     1.0000   1.0000   1.0000   1.0000   1.0000   1.0000   1.0000   1.0000
     1.0000   1.0000   1.0000   1.0000   1.0000   1.0000   1.0000   1.0000
     1.0000   1.0000   1.0000   1.0000   1.0000   1.0000   1.0000   1.0000
     1.0000   1.0000   1.0000   1.0000   1.0000   1.0000   1.0000   1.0000
     1.0000   1.0000   1.0000   1.0000   1.0000   1.0000   1.0301   1.0587
     0.0000   0.0000   0.0000   0.0000   0.0000   0.0000   0.0000   0.0000
     0.0000   0.0000   0.0000   0.0000   0.0000   0.0000   0.0000   0.0000
     0.0000   0.0000   0.0000   0.0000   0.0000   0.0000   0.0000   0.0000
     0.0000   0.0000   0.0000   0.0000   0.0000

          k = 0.0000 0.2887 0.1561 (  9261 PWs)   bands (ev):

    -9.3955  -9.1449  -8.7762  -8.7504  -8.6077  -8.5794  -8.5794  -8.5054
    -8.4791  -8.4791  -8.4157  -8.3526  -8.3526  -8.2889  -8.2755  -8.2755
     2.6508   2.7472   2.7608   2.7608   2.7982   2.8131   2.8132   2.8927
     2.9578   2.9578   3.0257   3.0675   3.1392   3.1586   3.1586   3.2473
     3.4694   3.5112   3.5190   3.5282   3.5779   3.6225   3.6344   3.6894
     3.6894   3.7237   3.7239   3.7688   3.7688   3.8480   3.8662   3.8688
     3.8688   3.8721   3.9197   3.9197   3.9790   4.0635   4.1280   4.1280
     4.1808   4.1808   4.1834   4.2555   4.2682   4.2682   4.3925   4.3925
     5.0936   5.1353   5.1666   5.1667   5.1791   5.2762   5.2893   5.3097
     5.3217   5.3217   5.3238   5.3238   5.3308   5.3795   5.3974   5.3974
     5.4189   5.4325   5.4577   5.4889   5.5171   5.5303   5.5389   5.5568
     5.5568   5.5627   5.5627   5.5948   5.6785   5.6785   5.6940   5.6940
     5.8658   5.8658   6.0048   6.0212   6.0342   6.0343   6.2951   6.2951
     6.3574   6.4413   6.4414   6.4750   6.6670   6.7805   6.7805   7.1328
     7.2938   7.2938   7.3282   7.4707   7.4707   7.6352   7.8944   8.0132
     8.0133   8.1251   8.2517   8.2517   8.3315   8.5262   8.5262   8.5380
     8.7388   8.7388   8.7486   8.8090   8.8090   8.8115   8.8943   8.8945
     8.9316   9.1662   9.1916   9.2052   9.4227   9.6420   9.8170   9.9463
    12.3584  13.6306  15.2282  15.3280  15.5001  16.2855  16.2855  16.4466
    16.4557  16.4558  16.4638  16.9235  16.9235  17.6227  17.6759  17.6759
    18.4265  18.4266  18.6631  19.0301  19.2457  19.2457  19.4752  19.6851
    19.7582  19.7583  19.7584  19.7861  19.7861

     occupation numbers 
     1.0000   1.0000   1.0000   1.0000   1.0000   1.0000   1.0000   1.0000
     1.0000   1.0000   1.0000   1.0000   1.0000   1.0000   1.0000   1.0000
     1.0000   1.0000   1.0000   1.0000   1.0000   1.0000   1.0000   1.0000
     1.0000   1.0000   1.0000   1.0000   1.0000   1.0000   1.0000   1.0000
     1.0000   1.0000   1.0000   1.0000   1.0000   1.0000   1.0000   1.0000
     1.0000   1.0000   1.0000   1.0000   1.0000   1.0000   1.0000   1.0000
     1.0000   1.0000   1.0000   1.0000   1.0000   1.0000   1.0000   1.0000
     1.0000   1.0000   1.0000   1.0000   1.0000   1.0000   1.0000   1.0000
     1.0000   1.0000   1.0000   1.0000   1.0000   1.0000   1.0000   1.0000
     1.0000   1.0000   1.0000   1.0000   1.0000   1.0000   1.0000   1.0000
     1.0000   1.0000   1.0000   1.0000   1.0000   1.0000   1.0000   1.0000
     1.0000   1.0000   1.0000   1.0000   1.0000   1.0000   1.0000   1.0000
     1.0000   1.0000   1.0000   1.0000   1.0000   1.0000   1.0000   1.0000
     1.0000   1.0000   1.0000   1.0000   1.0000   1.0000   1.0000   1.0000
     1.0000   1.0000   1.0000   1.0000   1.0000   1.0000   1.0000   1.0000
     1.0000   1.0000   1.0000   1.0000   1.0000   1.0000   1.0000   1.0000
     1.0000   1.0000   1.0000   1.0000   1.0000   1.0000   1.0000   1.0000
     1.0000   1.0000   1.0000   1.0000   1.0000   1.0000   1.0154   1.0833
     0.0000   0.0000   0.0000   0.0000   0.0000   0.0000   0.0000   0.0000
     0.0000   0.0000   0.0000   0.0000   0.0000   0.0000   0.0000   0.0000
     0.0000   0.0000   0.0000   0.0000   0.0000   0.0000   0.0000   0.0000
     0.0000   0.0000   0.0000   0.0000   0.0000

          k = 0.0000 0.2887-0.3122 (  9268 PWs)   bands (ev):

    -9.2961  -9.2961  -8.6927  -8.6927  -8.6148  -8.6148  -8.5383  -8.5383
    -8.5383  -8.5382  -8.3387  -8.3386  -8.3050  -8.3050  -8.3050  -8.3050
     2.7204   2.7205   2.8578   2.8579   2.8579   2.8579   2.9335   2.9335
     2.9532   2.9532   2.9786   2.9787   2.9787   2.9787   3.1522   3.1522
     3.4869   3.4869   3.5086   3.5086   3.6154   3.6154   3.6799   3.6799
     3.7166   3.7166   3.7166   3.7167   3.7711   3.7711   3.8566   3.8566
     3.8939   3.8939   3.8939   3.8939   4.0752   4.0752   4.1736   4.1736
     4.1868   4.1868   4.1868   4.1868   4.2876   4.2877   4.2877   4.2877
     5.1886   5.1886   5.1954   5.1954   5.2250   5.2250   5.2399   5.2399
     5.2399   5.2400   5.3499   5.3499   5.3830   5.3830   5.3830   5.3830
     5.4633   5.4634   5.4852   5.4852   5.4982   5.4982   5.5483   5.5483
     5.5483   5.5483   5.6145   5.6145   5.7349   5.7349   5.7349   5.7349
     5.8985   5.8985   5.8985   5.8985   6.1633   6.1633   6.3913   6.3913
     6.3913   6.3913   6.5075   6.5075   6.6724   6.6724   7.0973   7.0973
     7.0973   7.0973   7.4447   7.4447   7.6012   7.6012   7.6012   7.6012
     7.8382   7.8382   8.4658   8.4658   8.4658   8.4658   8.6355   8.6355
     8.7824   8.7824   8.7824   8.7825   8.8622   8.8622   8.9569   8.9569
     8.9997   8.9998   9.0188   9.0188   9.6692   9.6692   9.8240   9.8241
    12.8999  12.9000  15.3280  15.3280  15.9294  15.9295  16.2909  16.2909
    16.2910  16.2910  17.0595  17.0595  17.3375  17.3375  17.3375  17.3376
    18.8559  18.8559  18.8559  18.8559  19.1210  19.1210  19.4236  19.4236
    19.7307  19.7308  19.8248  19.8248  19.8248

     occupation numbers 
     1.0000   1.0000   1.0000   1.0000   1.0000   1.0000   1.0000   1.0000
     1.0000   1.0000   1.0000   1.0000   1.0000   1.0000   1.0000   1.0000
     1.0000   1.0000   1.0000   1.0000   1.0000   1.0000   1.0000   1.0000
     1.0000   1.0000   1.0000   1.0000   1.0000   1.0000   1.0000   1.0000
     1.0000   1.0000   1.0000   1.0000   1.0000   1.0000   1.0000   1.0000
     1.0000   1.0000   1.0000   1.0000   1.0000   1.0000   1.0000   1.0000
     1.0000   1.0000   1.0000   1.0000   1.0000   1.0000   1.0000   1.0000
     1.0000   1.0000   1.0000   1.0000   1.0000   1.0000   1.0000   1.0000
     1.0000   1.0000   1.0000   1.0000   1.0000   1.0000   1.0000   1.0000
     1.0000   1.0000   1.0000   1.0000   1.0000   1.0000   1.0000   1.0000
     1.0000   1.0000   1.0000   1.0000   1.0000   1.0000   1.0000   1.0000
     1.0000   1.0000   1.0000   1.0000   1.0000   1.0000   1.0000   1.0000
     1.0000   1.0000   1.0000   1.0000   1.0000   1.0000   1.0000   1.0000
     1.0000   1.0000   1.0000   1.0000   1.0000   1.0000   1.0000   1.0000
     1.0000   1.0000   1.0000   1.0000   1.0000   1.0000   1.0000   1.0000
     1.0000   1.0000   1.0000   1.0000   1.0000   1.0000   1.0000   1.0000
     1.0000   1.0000   1.0000   1.0000   1.0000   1.0000   1.0000   1.0000
     1.0000   1.0000   1.0000   1.0000   1.0002   1.0002   1.0180   1.0180
     0.0000   0.0000   0.0000   0.0000   0.0000   0.0000   0.0000   0.0000
     0.0000   0.0000   0.0000   0.0000   0.0000   0.0000   0.0000   0.0000
     0.0000   0.0000   0.0000   0.0000   0.0000   0.0000   0.0000   0.0000
     0.0000   0.0000   0.0000   0.0000   0.0000

          k = 0.0000-0.5774 0.0000 (  9260 PWs)   bands (ev):

    -9.1264  -9.1264  -8.7416  -8.7416  -8.7416  -8.7415  -8.6028  -8.6028
    -8.4161  -8.4161  -8.4161  -8.4160  -8.3532  -8.3532  -8.2612  -8.2612
     2.7682   2.7682   2.7682   2.7682   2.8862   2.8862   2.8862   2.8862
     2.9496   2.9496   3.2177   3.2177   3.2451   3.2451   3.3967   3.3967
     3.6021   3.6021   3.6316   3.6316   3.6723   3.6723   3.6723   3.6724
     3.6978   3.6978   3.6978   3.6978   3.7545   3.7546   3.7546   3.7546
     3.7795   3.7795   3.8420   3.8420   3.8681   3.8681   3.9809   3.9809
     4.1468   4.1468   4.1468   4.1468   4.3556   4.3557   4.4051   4.4051
     4.9833   4.9833   4.9894   4.9894   5.1703   5.1703   5.1967   5.1967
     5.3337   5.3337   5.3337   5.3337   5.3655   5.3655   5.3655   5.3655
     5.3684   5.3684   5.3684   5.3684   5.5192   5.5192   5.5472   5.5472
     5.5674   5.5675   5.6280   5.6280   5.6391   5.6392   5.6392   5.6392
     5.9083   5.9083   5.9817   5.9817   6.3622   6.3622   6.4040   6.4040
     6.4040   6.4040   6.9106   6.9106   6.9548   6.9548   7.2431   7.2431
     7.4256   7.4256   7.4256   7.4256   7.4409   7.4409   7.4409   7.4409
     8.2319   8.2319   8.3416   8.3416   8.5059   8.5059   8.5059   8.5059
     8.5153   8.5153   8.5275   8.5275   8.5275   8.5275   8.6018   8.6018
     8.9503   8.9503   8.9503   8.9503   9.4591   9.4591   9.6251   9.6251
    13.7190  13.7190  15.3035  15.3035  15.3035  15.3035  16.6374  16.6374
    17.0191  17.0191  17.0191  17.0191  17.9573  17.9573  17.9880  17.9880
    18.6484  18.6484  19.1384  19.1384  19.6523  19.6523  19.6523  19.6523
    19.6888  19.6888  20.2875  20.2875  20.2877

     occupation numbers 
     1.0000   1.0000   1.0000   1.0000   1.0000   1.0000   1.0000   1.0000
     1.0000   1.0000   1.0000   1.0000   1.0000   1.0000   1.0000   1.0000
     1.0000   1.0000   1.0000   1.0000   1.0000   1.0000   1.0000   1.0000
     1.0000   1.0000   1.0000   1.0000   1.0000   1.0000   1.0000   1.0000
     1.0000   1.0000   1.0000   1.0000   1.0000   1.0000   1.0000   1.0000
     1.0000   1.0000   1.0000   1.0000   1.0000   1.0000   1.0000   1.0000
     1.0000   1.0000   1.0000   1.0000   1.0000   1.0000   1.0000   1.0000
     1.0000   1.0000   1.0000   1.0000   1.0000   1.0000   1.0000   1.0000
     1.0000   1.0000   1.0000   1.0000   1.0000   1.0000   1.0000   1.0000
     1.0000   1.0000   1.0000   1.0000   1.0000   1.0000   1.0000   1.0000
     1.0000   1.0000   1.0000   1.0000   1.0000   1.0000   1.0000   1.0000
     1.0000   1.0000   1.0000   1.0000   1.0000   1.0000   1.0000   1.0000
     1.0000   1.0000   1.0000   1.0000   1.0000   1.0000   1.0000   1.0000
     1.0000   1.0000   1.0000   1.0000   1.0000   1.0000   1.0000   1.0000
     1.0000   1.0000   1.0000   1.0000   1.0000   1.0000   1.0000   1.0000
     1.0000   1.0000   1.0000   1.0000   1.0000   1.0000   1.0000   1.0000
     1.0000   1.0000   1.0000   1.0000   1.0000   1.0000   1.0000   1.0000
     1.0000   1.0000   1.0000   1.0000   1.0000   1.0000   1.0000   1.0000
     0.0000   0.0000   0.0000   0.0000   0.0000   0.0000   0.0000   0.0000
     0.0000   0.0000   0.0000   0.0000   0.0000   0.0000   0.0000   0.0000
     0.0000   0.0000   0.0000   0.0000   0.0000   0.0000   0.0000   0.0000
     0.0000   0.0000   0.0000   0.0000   0.0000

          k = 0.0000-0.5774 0.1561 (  9290 PWs)   bands (ev):

    -9.0974  -9.0974  -8.8896  -8.8896  -8.5929  -8.5929  -8.5877  -8.5877
    -8.4842  -8.4842  -8.3827  -8.3827  -8.3526  -8.3526  -8.2717  -8.2717
     2.7754   2.7754   2.8533   2.8533   2.9207   2.9207   2.9233   2.9233
     2.9576   2.9576   3.1638   3.1638   3.2144   3.2144   3.2588   3.2588
     3.6116   3.6116   3.6407   3.6407   3.6530   3.6530   3.6682   3.6682
     3.6888   3.6888   3.7141   3.7141   3.7462   3.7462   3.7699   3.7699
     3.7700   3.7700   3.8306   3.8306   3.8489   3.8489   3.9602   3.9602
     4.1465   4.1465   4.1928   4.1928   4.2720   4.2720   4.3665   4.3665
     5.0286   5.0286   5.0317   5.0317   5.2103   5.2103   5.2488   5.2488
     5.2502   5.2502   5.2809   5.2809   5.3031   5.3031   5.3719   5.3719
     5.4258   5.4258   5.4722   5.4722   5.5079   5.5079   5.5609   5.5609
     5.5694   5.5694   5.5808   5.5808   5.7053   5.7053   5.7285   5.7285
     5.9442   5.9442   6.0833   6.0833   6.2043   6.2043   6.4458   6.4458
     6.5589   6.5589   6.9205   6.9205   7.0534   7.0534   7.0698   7.0698
     7.1132   7.1132   7.2967   7.2967   7.6028   7.6028   7.6711   7.6711
     8.0729   8.0729   8.2131   8.2131   8.2645   8.2645   8.2886   8.2886
     8.4455   8.4455   8.6588   8.6588   8.6818   8.6818   8.7455   8.7455
     9.0000   9.0000   9.2120   9.2120   9.4471   9.4472   9.5751   9.5751
    13.8088  13.8088  14.6142  14.6142  16.0814  16.0814  16.6310  16.6310
    16.7618  16.7618  17.3621  17.3621  17.5771  17.5771  17.8844  17.8844
    18.9545  18.9545  19.1725  19.1725  19.4322  19.4322  19.7320  19.7320
    19.8398  19.8398  19.8550  19.8550  20.3785

     occupation numbers 
     1.0000   1.0000   1.0000   1.0000   1.0000   1.0000   1.0000   1.0000
     1.0000   1.0000   1.0000   1.0000   1.0000   1.0000   1.0000   1.0000
     1.0000   1.0000   1.0000   1.0000   1.0000   1.0000   1.0000   1.0000
     1.0000   1.0000   1.0000   1.0000   1.0000   1.0000   1.0000   1.0000
     1.0000   1.0000   1.0000   1.0000   1.0000   1.0000   1.0000   1.0000
     1.0000   1.0000   1.0000   1.0000   1.0000   1.0000   1.0000   1.0000
     1.0000   1.0000   1.0000   1.0000   1.0000   1.0000   1.0000   1.0000
     1.0000   1.0000   1.0000   1.0000   1.0000   1.0000   1.0000   1.0000
     1.0000   1.0000   1.0000   1.0000   1.0000   1.0000   1.0000   1.0000
     1.0000   1.0000   1.0000   1.0000   1.0000   1.0000   1.0000   1.0000
     1.0000   1.0000   1.0000   1.0000   1.0000   1.0000   1.0000   1.0000
     1.0000   1.0000   1.0000   1.0000   1.0000   1.0000   1.0000   1.0000
     1.0000   1.0000   1.0000   1.0000   1.0000   1.0000   1.0000   1.0000
     1.0000   1.0000   1.0000   1.0000   1.0000   1.0000   1.0000   1.0000
     1.0000   1.0000   1.0000   1.0000   1.0000   1.0000   1.0000   1.0000
     1.0000   1.0000   1.0000   1.0000   1.0000   1.0000   1.0000   1.0000
     1.0000   1.0000   1.0000   1.0000   1.0000   1.0000   1.0000   1.0000
     1.0000   1.0000   1.0000   1.0000   1.0000   1.0000   1.0000   1.0000
     0.0000   0.0000   0.0000   0.0000   0.0000   0.0000   0.0000   0.0000
     0.0000   0.0000   0.0000   0.0000   0.0000   0.0000   0.0000   0.0000
     0.0000   0.0000   0.0000   0.0000   0.0000   0.0000   0.0000   0.0000
     0.0000   0.0000   0.0000   0.0000   0.0000

          k = 0.0000-0.5774-0.3122 (  9252 PWs)   bands (ev):

    -9.0145  -9.0145  -9.0144  -9.0144  -8.5453  -8.5453  -8.5453  -8.5453
    -8.4668  -8.4668  -8.4668  -8.4668  -8.3028  -8.3028  -8.3028  -8.3028
     2.8472   2.8472   2.8472   2.8472   3.0291   3.0291   3.0292   3.0292
     3.0392   3.0392   3.0392   3.0392   3.1029   3.1029   3.1029   3.1029
     3.6406   3.6406   3.6406   3.6406   3.6599   3.6599   3.6599   3.6599
     3.6625   3.6625   3.6625   3.6625   3.7473   3.7473   3.7473   3.7473
     3.8020   3.8020   3.8020   3.8020   3.9049   3.9049   3.9049   3.9049
     4.1859   4.1859   4.1859   4.1859   4.2782   4.2782   4.2782   4.2783
     5.1294   5.1294   5.1294   5.1295   5.1351   5.1351   5.1351   5.1351
     5.2482   5.2482   5.2482   5.2482   5.3657   5.3657   5.3657   5.3657
     5.4754   5.4754   5.4754   5.4754   5.5462   5.5462   5.5462   5.5462
     5.5584   5.5584   5.5584   5.5584   5.8174   5.8174   5.8174   5.8174
     5.9737   5.9737   5.9737   5.9737   6.5595   6.5595   6.5595   6.5595
     6.6001   6.6001   6.6001   6.6001   6.8963   6.8963   6.8963   6.8963
     7.4156   7.4156   7.4156   7.4156   7.4542   7.4542   7.4542   7.4542
     8.0985   8.0985   8.0985   8.0985   8.2698   8.2698   8.2699   8.2699
     8.4489   8.4490   8.4490   8.4490   8.7581   8.7581   8.7581   8.7581
     9.3269   9.3269   9.3269   9.3269   9.4307   9.4307   9.4307   9.4307
    14.1012  14.1012  14.1012  14.1012  16.6472  16.6472  16.6472  16.6472
    16.8673  16.8673  16.8673  16.8673  17.6762  17.6762  17.6762  17.6762
    19.2708  19.2708  19.2708  19.2708  19.3998  19.3998  19.3998  19.3998
    19.8265  19.8265  19.8266  19.8266  20.4946

     occupation numbers 
     1.0000   1.0000   1.0000   1.0000   1.0000   1.0000   1.0000   1.0000
     1.0000   1.0000   1.0000   1.0000   1.0000   1.0000   1.0000   1.0000
     1.0000   1.0000   1.0000   1.0000   1.0000   1.0000   1.0000   1.0000
     1.0000   1.0000   1.0000   1.0000   1.0000   1.0000   1.0000   1.0000
     1.0000   1.0000   1.0000   1.0000   1.0000   1.0000   1.0000   1.0000
     1.0000   1.0000   1.0000   1.0000   1.0000   1.0000   1.0000   1.0000
     1.0000   1.0000   1.0000   1.0000   1.0000   1.0000   1.0000   1.0000
     1.0000   1.0000   1.0000   1.0000   1.0000   1.0000   1.0000   1.0000
     1.0000   1.0000   1.0000   1.0000   1.0000   1.0000   1.0000   1.0000
     1.0000   1.0000   1.0000   1.0000   1.0000   1.0000   1.0000   1.0000
     1.0000   1.0000   1.0000   1.0000   1.0000   1.0000   1.0000   1.0000
     1.0000   1.0000   1.0000   1.0000   1.0000   1.0000   1.0000   1.0000
     1.0000   1.0000   1.0000   1.0000   1.0000   1.0000   1.0000   1.0000
     1.0000   1.0000   1.0000   1.0000   1.0000   1.0000   1.0000   1.0000
     1.0000   1.0000   1.0000   1.0000   1.0000   1.0000   1.0000   1.0000
     1.0000   1.0000   1.0000   1.0000   1.0000   1.0000   1.0000   1.0000
     1.0000   1.0000   1.0000   1.0000   1.0000   1.0000   1.0000   1.0000
     1.0000   1.0000   1.0000   1.0000   1.0000   1.0000   1.0000   1.0000
     0.0000   0.0000   0.0000   0.0000   0.0000   0.0000   0.0000   0.0000
     0.0000   0.0000   0.0000   0.0000   0.0000   0.0000   0.0000   0.0000
     0.0000   0.0000   0.0000   0.0000   0.0000   0.0000   0.0000   0.0000
     0.0000   0.0000   0.0000   0.0000   0.0000

          k = 0.2500 0.4330 0.0000 (  9262 PWs)   bands (ev):

    -9.2195  -8.8862  -8.8862  -8.8075  -8.8075  -8.5802  -8.5802  -8.5802
    -8.5802  -8.4339  -8.3845  -8.3473  -8.3473  -8.2996  -8.2886  -8.2886
     2.7455   2.7455   2.7455   2.7455   2.8271   2.8272   2.9472   2.9472
     3.0250   3.0250   3.0906   3.2320   3.2769   3.3086   3.3086   3.5904
     3.5904   3.6042   3.6042   3.6098   3.6266   3.6406   3.6472   3.6472
     3.6494   3.6939   3.7132   3.7132   3.7132   3.7132   3.7371   3.7371
     3.8167   3.8167   3.8636   3.9221   3.9521   3.9521   3.9521   3.9521
     4.0882   4.0883   4.2001   4.2001   4.2975   4.2975   4.4294   4.5587
     4.9772   4.9772   5.0412   5.1093   5.1584   5.2014   5.2224   5.2224
     5.2256   5.2256   5.3222   5.3557   5.3557   5.3704   5.3704   5.3722
     5.3722   5.3722   5.3722   5.3880   5.4365   5.4365   5.4365   5.4365
     5.5100   5.5335   5.5335   5.5613   5.5613   5.5666   5.8619   5.8619
     5.8677   5.8767   6.0433   6.0433   6.0438   6.0439   6.3098   6.4001
     6.7098   6.7098   6.9530   6.9530   6.9530   6.9530   7.0860   7.0860
     7.4202   7.4202   7.4877   7.6230   7.6230   7.7323   7.7509   7.7509
     7.9523   8.1419   8.2326   8.2326   8.2326   8.2326   8.2921   8.5375
     8.5375   8.5558   8.5558   8.5558   8.5558   8.6376   8.6376   8.7328
     9.0086   9.0086   9.1061   9.1061   9.1877   9.1877   9.6016   9.6634
    13.3212  14.9403  14.9403  15.1280  15.1280  15.9829  15.9829  15.9829
    15.9829  17.7130  17.7271  17.7271  17.7919  18.1296  18.2417  18.2417
    18.3653  18.7626  19.0422  19.0422  19.3000  19.3000  19.4516  19.7080
    19.7080  19.9429  19.9429  19.9429  19.9430

     occupation numbers 
     1.0000   1.0000   1.0000   1.0000   1.0000   1.0000   1.0000   1.0000
     1.0000   1.0000   1.0000   1.0000   1.0000   1.0000   1.0000   1.0000
     1.0000   1.0000   1.0000   1.0000   1.0000   1.0000   1.0000   1.0000
     1.0000   1.0000   1.0000   1.0000   1.0000   1.0000   1.0000   1.0000
     1.0000   1.0000   1.0000   1.0000   1.0000   1.0000   1.0000   1.0000
     1.0000   1.0000   1.0000   1.0000   1.0000   1.0000   1.0000   1.0000
     1.0000   1.0000   1.0000   1.0000   1.0000   1.0000   1.0000   1.0000
     1.0000   1.0000   1.0000   1.0000   1.0000   1.0000   1.0000   1.0000
     1.0000   1.0000   1.0000   1.0000   1.0000   1.0000   1.0000   1.0000
     1.0000   1.0000   1.0000   1.0000   1.0000   1.0000   1.0000   1.0000
     1.0000   1.0000   1.0000   1.0000   1.0000   1.0000   1.0000   1.0000
     1.0000   1.0000   1.0000   1.0000   1.0000   1.0000   1.0000   1.0000
     1.0000   1.0000   1.0000   1.0000   1.0000   1.0000   1.0000   1.0000
     1.0000   1.0000   1.0000   1.0000   1.0000   1.0000   1.0000   1.0000
     1.0000   1.0000   1.0000   1.0000   1.0000   1.0000   1.0000   1.0000
     1.0000   1.0000   1.0000   1.0000   1.0000   1.0000   1.0000   1.0000
     1.0000   1.0000   1.0000   1.0000   1.0000   1.0000   1.0000   1.0000
     1.0000   1.0000   1.0000   1.0000   1.0000   1.0000   1.0000   1.0001
     0.0000   0.0000   0.0000   0.0000   0.0000   0.0000   0.0000   0.0000
     0.0000   0.0000   0.0000   0.0000   0.0000   0.0000   0.0000   0.0000
     0.0000   0.0000   0.0000   0.0000   0.0000   0.0000   0.0000   0.0000
     0.0000   0.0000   0.0000   0.0000   0.0000

          k = 0.2500 0.4330 0.1561 (  9256 PWs)   bands (ev):

    -9.1886  -8.9668  -8.8627  -8.8626  -8.6961  -8.6961  -8.6466  -8.4664
    -8.4664  -8.4260  -8.4170  -8.3760  -8.3243  -8.3101  -8.3101  -8.3018
     2.7593   2.7593   2.8333   2.8333   2.8579   2.8840   2.9151   2.9151
     3.0610   3.0650   3.1047   3.1785   3.2195   3.2195   3.2221   3.5227
     3.5307   3.5821   3.5840   3.5925   3.5965   3.6128   3.6451   3.6451
     3.6850   3.6850   3.7052   3.7164   3.7221   3.7345   3.7345   3.7912
     3.7941   3.7941   3.8598   3.9032   3.9312   3.9312   4.0207   4.0207
     4.0357   4.0357   4.1732   4.1732   4.3025   4.3208   4.3909   4.4857
     5.0210   5.0210   5.0718   5.1245   5.1803   5.1916   5.2458   5.2541
     5.2581   5.2593   5.2593   5.2645   5.2645   5.2914   5.3571   5.3571
     5.4203   5.4287   5.4328   5.4565   5.4565   5.4640   5.4996   5.5229
     5.5229   5.5287   5.5287   5.5681   5.6112   5.6112   5.7348   5.8182
     5.9657   6.0278   6.0584   6.1477   6.1477   6.1708   6.2964   6.3678
     6.7062   6.7312   6.7312   6.7964   6.7964   7.1207   7.1207   7.1396
     7.4596   7.4642   7.4642   7.6136   7.7207   7.7207   7.7838   7.8296
     7.8296   7.9380   7.9592   8.0296   8.0296   8.1661   8.2256   8.2908
     8.3121   8.5759   8.6719   8.6795   8.6795   8.7508   8.9173   8.9173
     9.0880   9.0880   9.1103   9.1630   9.1630   9.2541   9.5789   9.6131
    13.4407  14.3915  14.9760  14.9760  15.4557  15.4557  15.9281  16.6391
    16.6391  17.3831  17.5808  17.6953  17.9296  17.9296  17.9717  18.2870
    18.3249  18.9189  18.9918  19.2302  19.2302  19.4908  19.6594  19.7394
    19.7394  19.7770  19.7770  19.9411  19.9502

     occupation numbers 
     1.0000   1.0000   1.0000   1.0000   1.0000   1.0000   1.0000   1.0000
     1.0000   1.0000   1.0000   1.0000   1.0000   1.0000   1.0000   1.0000
     1.0000   1.0000   1.0000   1.0000   1.0000   1.0000   1.0000   1.0000
     1.0000   1.0000   1.0000   1.0000   1.0000   1.0000   1.0000   1.0000
     1.0000   1.0000   1.0000   1.0000   1.0000   1.0000   1.0000   1.0000
     1.0000   1.0000   1.0000   1.0000   1.0000   1.0000   1.0000   1.0000
     1.0000   1.0000   1.0000   1.0000   1.0000   1.0000   1.0000   1.0000
     1.0000   1.0000   1.0000   1.0000   1.0000   1.0000   1.0000   1.0000
     1.0000   1.0000   1.0000   1.0000   1.0000   1.0000   1.0000   1.0000
     1.0000   1.0000   1.0000   1.0000   1.0000   1.0000   1.0000   1.0000
     1.0000   1.0000   1.0000   1.0000   1.0000   1.0000   1.0000   1.0000
     1.0000   1.0000   1.0000   1.0000   1.0000   1.0000   1.0000   1.0000
     1.0000   1.0000   1.0000   1.0000   1.0000   1.0000   1.0000   1.0000
     1.0000   1.0000   1.0000   1.0000   1.0000   1.0000   1.0000   1.0000
     1.0000   1.0000   1.0000   1.0000   1.0000   1.0000   1.0000   1.0000
     1.0000   1.0000   1.0000   1.0000   1.0000   1.0000   1.0000   1.0000
     1.0000   1.0000   1.0000   1.0000   1.0000   1.0000   1.0000   1.0000
     1.0000   1.0000   1.0000   1.0000   1.0000   1.0000   1.0000   1.0000
     0.0000   0.0000   0.0000   0.0000   0.0000   0.0000   0.0000   0.0000
     0.0000   0.0000   0.0000   0.0000   0.0000   0.0000   0.0000   0.0000
     0.0000   0.0000   0.0000   0.0000   0.0000   0.0000   0.0000   0.0000
     0.0000   0.0000   0.0000   0.0000   0.0000

          k = 0.2500 0.4330-0.3122 (  9258 PWs)   bands (ev):

    -9.1003  -9.1002  -8.7957  -8.7957  -8.7956  -8.7956  -8.5092  -8.5092
    -8.4047  -8.4047  -8.3720  -8.3720  -8.3719  -8.3719  -8.3094  -8.3093
     2.8360   2.8360   2.8360   2.8360   2.9809   2.9809   2.9914   2.9914
     3.0154   3.0154   3.0154   3.0154   3.1645   3.1645   3.2950   3.2950
     3.5209   3.5210   3.5811   3.5811   3.5896   3.5896   3.6574   3.6574
     3.6574   3.6574   3.7263   3.7264   3.7574   3.7574   3.7574   3.7574
     3.8031   3.8032   3.8539   3.8539   3.9654   3.9654   3.9654   3.9654
     4.1049   4.1049   4.1049   4.1049   4.3343   4.3343   4.3817   4.3817
     5.1275   5.1275   5.1275   5.1275   5.1521   5.1521   5.1564   5.1564
     5.2292   5.2293   5.2691   5.2691   5.3152   5.3152   5.3152   5.3152
     5.4690   5.4690   5.4940   5.4940   5.4941   5.4941   5.5343   5.5343
     5.5704   5.5704   5.6107   5.6107   5.6107   5.6107   5.6329   5.6329
     6.0754   6.0754   6.2844   6.2844   6.3878   6.3878   6.4494   6.4494
     6.4495   6.4495   6.5558   6.5558   7.0488   7.0488   7.0488   7.0489
     7.5142   7.5142   7.5142   7.5142   7.7710   7.7711   7.7843   7.7843
     7.7843   7.7843   7.9291   7.9292   7.9431   7.9431   8.1542   8.1543
     8.4449   8.4449   8.6201   8.6201   8.9288   8.9288   8.9289   8.9289
     9.1242   9.1242   9.1242   9.1242   9.4358   9.4358   9.4682   9.4683
    13.8057  13.8057  15.1242  15.1242  15.1242  15.1242  16.7124  16.7124
    17.3217  17.3217  17.3217  17.3217  17.5850  17.5850  18.1936  18.1936
    18.5800  18.5800  19.4220  19.4220  19.5230  19.5230  19.5230  19.5231
    19.5992  19.5993  19.8359  19.8359  19.8359

     occupation numbers 
     1.0000   1.0000   1.0000   1.0000   1.0000   1.0000   1.0000   1.0000
     1.0000   1.0000   1.0000   1.0000   1.0000   1.0000   1.0000   1.0000
     1.0000   1.0000   1.0000   1.0000   1.0000   1.0000   1.0000   1.0000
     1.0000   1.0000   1.0000   1.0000   1.0000   1.0000   1.0000   1.0000
     1.0000   1.0000   1.0000   1.0000   1.0000   1.0000   1.0000   1.0000
     1.0000   1.0000   1.0000   1.0000   1.0000   1.0000   1.0000   1.0000
     1.0000   1.0000   1.0000   1.0000   1.0000   1.0000   1.0000   1.0000
     1.0000   1.0000   1.0000   1.0000   1.0000   1.0000   1.0000   1.0000
     1.0000   1.0000   1.0000   1.0000   1.0000   1.0000   1.0000   1.0000
     1.0000   1.0000   1.0000   1.0000   1.0000   1.0000   1.0000   1.0000
     1.0000   1.0000   1.0000   1.0000   1.0000   1.0000   1.0000   1.0000
     1.0000   1.0000   1.0000   1.0000   1.0000   1.0000   1.0000   1.0000
     1.0000   1.0000   1.0000   1.0000   1.0000   1.0000   1.0000   1.0000
     1.0000   1.0000   1.0000   1.0000   1.0000   1.0000   1.0000   1.0000
     1.0000   1.0000   1.0000   1.0000   1.0000   1.0000   1.0000   1.0000
     1.0000   1.0000   1.0000   1.0000   1.0000   1.0000   1.0000   1.0000
     1.0000   1.0000   1.0000   1.0000   1.0000   1.0000   1.0000   1.0000
     1.0000   1.0000   1.0000   1.0000   1.0000   1.0000   1.0000   1.0000
     0.0000   0.0000   0.0000   0.0000   0.0000   0.0000   0.0000   0.0000
     0.0000   0.0000   0.0000   0.0000   0.0000   0.0000   0.0000   0.0000
     0.0000   0.0000   0.0000   0.0000   0.0000   0.0000   0.0000   0.0000
     0.0000   0.0000   0.0000   0.0000   0.0000

          k = 0.0000-0.2887 0.1561 (  9261 PWs)   bands (ev):

    -9.3955  -9.1449  -8.7762  -8.7504  -8.6077  -8.5794  -8.5794  -8.5054
    -8.4791  -8.4791  -8.4157  -8.3526  -8.3526  -8.2889  -8.2755  -8.2755
     2.6507   2.7472   2.7608   2.7608   2.7982   2.8131   2.8132   2.8927
     2.9578   2.9578   3.0257   3.0675   3.1392   3.1586   3.1586   3.2473
     3.4694   3.5112   3.5190   3.5282   3.5779   3.6225   3.6344   3.6894
     3.6894   3.7237   3.7239   3.7688   3.7688   3.8480   3.8662   3.8688
     3.8688   3.8721   3.9197   3.9197   3.9790   4.0635   4.1280   4.1280
     4.1808   4.1808   4.1834   4.2555   4.2682   4.2682   4.3925   4.3925
     5.0936   5.1353   5.1666   5.1667   5.1791   5.2762   5.2893   5.3097
     5.3217   5.3217   5.3238   5.3238   5.3308   5.3795   5.3974   5.3974
     5.4189   5.4325   5.4577   5.4889   5.5171   5.5303   5.5389   5.5568
     5.5568   5.5627   5.5627   5.5948   5.6785   5.6785   5.6940   5.6940
     5.8658   5.8658   6.0048   6.0212   6.0342   6.0343   6.2951   6.2951
     6.3574   6.4413   6.4413   6.4750   6.6670   6.7805   6.7805   7.1328
     7.2938   7.2938   7.3282   7.4707   7.4707   7.6352   7.8944   8.0132
     8.0133   8.1251   8.2517   8.2517   8.3315   8.5262   8.5262   8.5380
     8.7388   8.7388   8.7486   8.8090   8.8090   8.8115   8.8943   8.8945
     8.9316   9.1662   9.1916   9.2052   9.4227   9.6420   9.8170   9.9463
    12.3584  13.6306  15.2282  15.3280  15.5001  16.2855  16.2855  16.4466
    16.4557  16.4558  16.4638  16.9235  16.9235  17.6227  17.6759  17.6759
    18.4265  18.4266  18.6631  19.0301  19.2457  19.2457  19.4752  19.6851
    19.7582  19.7583  19.7584  19.7861  19.7861

     occupation numbers 
     1.0000   1.0000   1.0000   1.0000   1.0000   1.0000   1.0000   1.0000
     1.0000   1.0000   1.0000   1.0000   1.0000   1.0000   1.0000   1.0000
     1.0000   1.0000   1.0000   1.0000   1.0000   1.0000   1.0000   1.0000
     1.0000   1.0000   1.0000   1.0000   1.0000   1.0000   1.0000   1.0000
     1.0000   1.0000   1.0000   1.0000   1.0000   1.0000   1.0000   1.0000
     1.0000   1.0000   1.0000   1.0000   1.0000   1.0000   1.0000   1.0000
     1.0000   1.0000   1.0000   1.0000   1.0000   1.0000   1.0000   1.0000
     1.0000   1.0000   1.0000   1.0000   1.0000   1.0000   1.0000   1.0000
     1.0000   1.0000   1.0000   1.0000   1.0000   1.0000   1.0000   1.0000
     1.0000   1.0000   1.0000   1.0000   1.0000   1.0000   1.0000   1.0000
     1.0000   1.0000   1.0000   1.0000   1.0000   1.0000   1.0000   1.0000
     1.0000   1.0000   1.0000   1.0000   1.0000   1.0000   1.0000   1.0000
     1.0000   1.0000   1.0000   1.0000   1.0000   1.0000   1.0000   1.0000
     1.0000   1.0000   1.0000   1.0000   1.0000   1.0000   1.0000   1.0000
     1.0000   1.0000   1.0000   1.0000   1.0000   1.0000   1.0000   1.0000
     1.0000   1.0000   1.0000   1.0000   1.0000   1.0000   1.0000   1.0000
     1.0000   1.0000   1.0000   1.0000   1.0000   1.0000   1.0000   1.0000
     1.0000   1.0000   1.0000   1.0000   1.0000   1.0000   1.0154   1.0833
     0.0000   0.0000   0.0000   0.0000   0.0000   0.0000   0.0000   0.0000
     0.0000   0.0000   0.0000   0.0000   0.0000   0.0000   0.0000   0.0000
     0.0000   0.0000   0.0000   0.0000   0.0000   0.0000   0.0000   0.0000
     0.0000   0.0000   0.0000   0.0000   0.0000

     the Fermi energy is    10.1405 ev

!    total energy              =   -2892.42020310 Ry
     estimated scf accuracy    <          4.5E-09 Ry
     smearing contrib. (-TS)   =       0.00141315 Ry
     internal energy E=F+TS    =   -2892.42161625 Ry

     The total energy is F=E-TS. E is the sum of the following terms:
     one-electron contribution =   -1051.27887021 Ry
     hartree contribution      =     882.38096496 Ry
     xc contribution           =    -880.03079876 Ry
     ewald contribution        =   -1843.49291224 Ry

     convergence has been achieved in  15 iterations

     Writing output data file ./tmp/zno_pure_32.save/

     init_run     :     39.01s CPU     39.74s WALL (       1 calls)
     electrons    :   1646.45s CPU   1654.85s WALL (       1 calls)

     Called by init_run:
     wfcinit      :     37.35s CPU     37.68s WALL (       1 calls)
     wfcinit:atom :      0.06s CPU      0.06s WALL (      13 calls)
     wfcinit:wfcr :     36.82s CPU     37.14s WALL (      13 calls)
     potinit      :      0.30s CPU      0.34s WALL (       1 calls)
     hinit0       :      0.59s CPU      0.61s WALL (       1 calls)

     Called by electrons:
     c_bands      :   1527.10s CPU   1531.98s WALL (      15 calls)
     sum_band     :    107.27s CPU    109.72s WALL (      15 calls)
     v_of_rho     :      1.24s CPU      1.33s WALL (      16 calls)
     v_h          :      0.08s CPU      0.09s WALL (      16 calls)
     v_xc         :      1.15s CPU      1.24s WALL (      16 calls)
     newd         :     11.12s CPU     12.39s WALL (      16 calls)
     mix_rho      :      0.27s CPU      0.28s WALL (      15 calls)

     Called by c_bands:
     init_us_2    :      2.44s CPU      2.45s WALL (     403 calls)
     cegterg      :   1518.50s CPU   1523.36s WALL (     195 calls)

     Called by sum_band:
     sum_band:wei :      0.02s CPU      0.02s WALL (      15 calls)
     sum_band:loo :     97.28s CPU     97.87s WALL (      15 calls)
     sum_band:buf :      0.66s CPU      0.66s WALL (     195 calls)
     sum_band:ini :      1.13s CPU      1.13s WALL (     195 calls)
     sum_band:cal :     86.17s CPU     86.25s WALL (     195 calls)
     sum_band:bec :      0.23s CPU      0.23s WALL (     195 calls)
     addusdens    :      9.46s CPU     11.30s WALL (      15 calls)
     addusd:skk   :      0.11s CPU      0.12s WALL (      30 calls)
     addusd:dgemm :      7.74s CPU      9.46s WALL (      30 calls)
     addusd:qvan2 :      1.42s CPU      1.42s WALL (      30 calls)

     Called by *egterg:
     cdiaghg      :     81.79s CPU     82.30s WALL (    1006 calls)
     cegterg:over :    169.22s CPU    169.36s WALL (     811 calls)
     cegterg:upda :     87.27s CPU     87.39s WALL (     811 calls)
     cegterg:last :    274.22s CPU    274.54s WALL (     580 calls)
     cdiaghg:chol :      4.48s CPU      4.48s WALL (    1006 calls)
     cdiaghg:inve :      0.35s CPU      0.35s WALL (    1006 calls)
     cdiaghg:para :     27.61s CPU     28.05s WALL (    2012 calls)
     h_psi        :    625.02s CPU    628.92s WALL (    1019 calls)
     s_psi        :    274.25s CPU    274.28s WALL (    1019 calls)
     g_psi        :      1.02s CPU      1.02s WALL (     811 calls)

     Called by h_psi:
     h_psi:calbec :    286.13s CPU    286.45s WALL (    1019 calls)
     vloc_psi     :     59.14s CPU     62.68s WALL (    1019 calls)
     add_vuspsi   :    278.18s CPU    278.21s WALL (    1019 calls)

     General routines
     calbec       :    372.30s CPU    372.70s WALL (    1214 calls)
     fft          :      0.63s CPU      0.68s WALL (     206 calls)
     ffts         :      0.03s CPU      0.03s WALL (      31 calls)
     fftw         :     59.00s CPU     62.51s WALL (  248955 calls)
     interpolate  :      0.08s CPU      0.08s WALL (      16 calls)

     Parallel routines
     fft_scatt_xy :      9.28s CPU      9.84s WALL (  249192 calls)
     fft_scatt_yz :     17.70s CPU     18.78s WALL (  249192 calls)

     PWSCF        :  28m 5.77s CPU  28m15.23s WALL


   This run was terminated on:  16:33:17  15Apr2026            

=------------------------------------------------------------------------------=
   JOB DONE.
=------------------------------------------------------------------------------=
