
     Program POST-PROC v.6.7MaX starts on 15Apr2026 at 16:43: 2 

     This program is part of the open-source Quantum ESPRESSO suite
     for quantum simulation of materials; please cite
         "P. Giannozzi et al., J. Phys.:Condens. Matter 21 395502 (2009);
         "P. Giannozzi et al., J. Phys.:Condens. Matter 29 465901 (2017);
          URL http://www.quantum-espresso.org", 
     in publications or presentations arising from this work. More details at
     http://www.quantum-espresso.org/quote

     Parallel version (MPI), running on     4 processors

     MPI processes distributed on     1 nodes
     R & G space division:  proc/nbgrp/npool/nimage =       4

     Reading xml data from directory:

     ./tmp/zno_pure_32.save/
     file Zn.UPF: wavefunction(s)  3D renormalized

     IMPORTANT: XC functional enforced from input :
     Exchange-correlation= PBE
                           (   1   4   3   4   0   0   0)
     Any further DFT definition will be discarded
     Please, verify this is what you really want


     Parallelization info
     --------------------
     sticks:   dense  smooth     PW     G-vecs:    dense   smooth      PW
     Min         741     373    105                52363    18511    2729
     Max         742     375    106                52366    18514    2734
     Sum        2965    1495    421               209457    74049   10923


     Check: negative core charge=   -0.000001

     Calling punch_plot, plot_num =   0
     Writing data to file  zno_density
     Reading data from file  zno_density

     Writing data to be plotted to file zno_super_32.xsf
     Plot Type: 3D                     Output format: XCrySDen     

     POST-PROC    :      1.56s CPU      1.89s WALL


   This run was terminated on:  16:43: 4  15Apr2026            

=------------------------------------------------------------------------------=
   JOB DONE.
=------------------------------------------------------------------------------=
