
     Program PWSCF v.6.7MaX starts on 15Apr2026 at 14:45:33 

     This program is part of the open-source Quantum ESPRESSO suite
     for quantum simulation of materials; please cite
         "P. Giannozzi et al., J. Phys.:Condens. Matter 21 395502 (2009);
         "P. Giannozzi et al., J. Phys.:Condens. Matter 29 465901 (2017);
          URL http://www.quantum-espresso.org", 
     in publications or presentations arising from this work. More details at
     http://www.quantum-espresso.org/quote

     Parallel version (MPI), running on     4 processors

     MPI processes distributed on     1 nodes
     R & G space division:  proc/nbgrp/npool/nimage =       4
     Reading input from zno_prim.in

     Current dimensions of program PWSCF are:
     Max number of different atomic species (ntypx) = 10
     Max number of k-points (npk) =  40000
     Max angular momentum in pseudopotentials (lmaxx) =  3
     file Zn.UPF: wavefunction(s)  3D renormalized

     Subspace diagonalization in iterative solution of the eigenvalue problem:
     one sub-group per band group will be used
     scalapack distributed-memory algorithm (size of sub-group:  2*  2 procs)


     Parallelization info
     --------------------
     sticks:   dense  smooth     PW     G-vecs:    dense   smooth      PW
     Min         211     105     30                 7759     2749     474
     Max         212     106     31                 7762     2756     483
     Sum         847     421    121                31045    11007    1907



     bravais-lattice index     =            4
     lattice parameter (alat)  =       6.1416  a.u.
     unit-cell volume          =     320.9943 (a.u.)^3
     number of atoms/cell      =            4
     number of atomic types    =            2
     number of electrons       =        36.00
     number of Kohn-Sham states=           18
     kinetic-energy cutoff     =      40.0000  Ry
     charge density cutoff     =     320.0000  Ry
     scf convergence threshold =      1.0E-08
     mixing beta               =       0.7000
     number of iterations used =            8  plain     mixing
     energy convergence thresh.=      1.0E-04
     force convergence thresh. =      1.0E-03
     press convergence thresh. =      5.0E-01
     Exchange-correlation= PBE
                           (   1   4   3   4   0   0   0)
     nstep                     =           50


     celldm(1)=   6.141610  celldm(2)=   0.000000  celldm(3)=   1.600000
     celldm(4)=   0.000000  celldm(5)=   0.000000  celldm(6)=   0.000000

     crystal axes: (cart. coord. in units of alat)
               a(1) = (   1.000000   0.000000   0.000000 )  
               a(2) = (  -0.500000   0.866025   0.000000 )  
               a(3) = (   0.000000   0.000000   1.600000 )  

     reciprocal axes: (cart. coord. in units 2 pi/alat)
               b(1) = (  1.000000  0.577350 -0.000000 )  
               b(2) = (  0.000000  1.154701  0.000000 )  
               b(3) = (  0.000000 -0.000000  0.625000 )  


     PseudoPot. # 1 for Zn read from file:
     ../pseudo/Zn.UPF
     MD5 check sum: c4fdec089fdc15c46897c8a96be99b2c
     Pseudo is Ultrasoft + core correction, Zval = 12.0
     Generated using &quot;atomic&quot; code by A. Dal Corso  v.6.2.2
     Using radial grid of 1201 points,  6 beta functions with: 
                l(1) =   0
                l(2) =   0
                l(3) =   1
                l(4) =   1
                l(5) =   2
                l(6) =   2
     Q(r) pseudized with 0 coefficients 


     PseudoPot. # 2 for O  read from file:
     ../pseudo/O.UPF
     MD5 check sum: b15f85fac327ccb5e22ba8b88818af9f
     Pseudo is Ultrasoft + core correction, Zval =  6.0
     Generated using &quot;atomic&quot; code by A. Dal Corso  v.6.3MaX
     Using radial grid of 1095 points,  4 beta functions with: 
                l(1) =   0
                l(2) =   0
                l(3) =   1
                l(4) =   1
     Q(r) pseudized with 0 coefficients 


     atomic species   valence    mass     pseudopotential
        Zn            12.00    65.38000     Zn( 1.00)
        O              6.00    15.99000     O ( 1.00)

     12 Sym. Ops. (no inversion) found ( 6 have fractional translation)



   Cartesian axes

     site n.     atom                  positions (alat units)
         1           Zn  tau(   1) = (  -0.0000005   0.5773506   0.0000000  )
         2           Zn  tau(   2) = (   0.5000005   0.2886748   0.8000000  )
         3           O   tau(   3) = (  -0.0000005   0.5773506   0.6112000  )
         4           O   tau(   4) = (   0.5000005   0.2886748   1.4112000  )

     number of k points=    21
                       cart. coord. in units 2pi/alat
        k(    1) = (   0.0000000   0.0000000   0.0000000), wk =   0.0138889
        k(    2) = (   0.0000000   0.0000000   0.1562500), wk =   0.0277778
        k(    3) = (   0.0000000   0.0000000  -0.3125000), wk =   0.0138889
        k(    4) = (   0.0000000   0.1924501   0.0000000), wk =   0.0833333
        k(    5) = (   0.0000000   0.1924501   0.1562500), wk =   0.1666667
        k(    6) = (   0.0000000   0.1924501  -0.3125000), wk =   0.0833333
        k(    7) = (   0.0000000   0.3849002   0.0000000), wk =   0.0833333
        k(    8) = (   0.0000000   0.3849002   0.1562500), wk =   0.1666667
        k(    9) = (   0.0000000   0.3849002  -0.3125000), wk =   0.0833333
        k(   10) = (   0.0000000  -0.5773503   0.0000000), wk =   0.0416667
        k(   11) = (   0.0000000  -0.5773503   0.1562500), wk =   0.0833333
        k(   12) = (   0.0000000  -0.5773503  -0.3125000), wk =   0.0416667
        k(   13) = (   0.1666667   0.2886751   0.0000000), wk =   0.0833333
        k(   14) = (   0.1666667   0.2886751   0.1562500), wk =   0.1666667
        k(   15) = (   0.1666667   0.2886751  -0.3125000), wk =   0.0833333
        k(   16) = (   0.1666667   0.4811252   0.0000000), wk =   0.1666667
        k(   17) = (   0.1666667   0.4811252   0.1562500), wk =   0.3333333
        k(   18) = (   0.1666667   0.4811252  -0.3125000), wk =   0.1666667
        k(   19) = (   0.3333333   0.5773503   0.0000000), wk =   0.0277778
        k(   20) = (   0.3333333   0.5773503   0.1562500), wk =   0.0555556
        k(   21) = (   0.3333333   0.5773503  -0.3125000), wk =   0.0277778

     Dense  grid:    31045 G-vectors     FFT dimensions: (  36,  36,  60)

     Smooth grid:    11007 G-vectors     FFT dimensions: (  25,  25,  40)

     Estimated max dynamical RAM per process >      36.65 MB

     Estimated total dynamical RAM >     146.60 MB

     Check: negative core charge=   -0.000002

     Initial potential from superposition of free atoms

     starting charge   35.99255, renormalised to   36.00000
     Starting wfcs are   26 randomized atomic wfcs

     total cpu time spent up to now is        1.2 secs

     Self-consistent Calculation

     iteration #  1     ecut=    40.00 Ry     beta= 0.70
     Davidson diagonalization with overlap
     ethr =  1.00E-02,  avg # of iterations =  2.0

     total cpu time spent up to now is        1.7 secs

     total energy              =    -361.25342631 Ry
     estimated scf accuracy    <       0.72781361 Ry

     iteration #  2     ecut=    40.00 Ry     beta= 0.70
     Davidson diagonalization with overlap
     ethr =  2.02E-03,  avg # of iterations =  5.5

     total cpu time spent up to now is        2.6 secs

     total energy              =    -361.47853284 Ry
     estimated scf accuracy    <       0.84623854 Ry

     iteration #  3     ecut=    40.00 Ry     beta= 0.70
     Davidson diagonalization with overlap
     ethr =  2.02E-03,  avg # of iterations =  2.0

     total cpu time spent up to now is        3.2 secs

     total energy              =    -361.45212058 Ry
     estimated scf accuracy    <       0.16156018 Ry

     iteration #  4     ecut=    40.00 Ry     beta= 0.70
     Davidson diagonalization with overlap
     ethr =  4.49E-04,  avg # of iterations =  6.8

     total cpu time spent up to now is        4.2 secs

     total energy              =    -361.86400862 Ry
     estimated scf accuracy    <       0.31090626 Ry

     iteration #  5     ecut=    40.00 Ry     beta= 0.70
     Davidson diagonalization with overlap
     ethr =  4.49E-04,  avg # of iterations =  4.1

     total cpu time spent up to now is        4.9 secs

     total energy              =    -361.50735597 Ry
     estimated scf accuracy    <       0.92555838 Ry

     iteration #  6     ecut=    40.00 Ry     beta= 0.70
     Davidson diagonalization with overlap
     ethr =  4.49E-04,  avg # of iterations =  5.8

     total cpu time spent up to now is        5.9 secs

     total energy              =    -361.62033234 Ry
     estimated scf accuracy    <       0.02803206 Ry

     iteration #  7     ecut=    40.00 Ry     beta= 0.70
     Davidson diagonalization with overlap
     ethr =  7.79E-05,  avg # of iterations =  3.7

     total cpu time spent up to now is        6.4 secs

     total energy              =    -361.62256822 Ry
     estimated scf accuracy    <       0.00880054 Ry

     iteration #  8     ecut=    40.00 Ry     beta= 0.70
     Davidson diagonalization with overlap
     ethr =  2.44E-05,  avg # of iterations =  3.5

     total cpu time spent up to now is        7.1 secs

     total energy              =    -361.62445991 Ry
     estimated scf accuracy    <       0.00079207 Ry

     iteration #  9     ecut=    40.00 Ry     beta= 0.70
     Davidson diagonalization with overlap
     ethr =  2.20E-06,  avg # of iterations =  6.3

     total cpu time spent up to now is        8.1 secs

     total energy              =    -361.62515777 Ry
     estimated scf accuracy    <       0.00024227 Ry

     iteration # 10     ecut=    40.00 Ry     beta= 0.70
     Davidson diagonalization with overlap
     ethr =  6.73E-07,  avg # of iterations =  2.0

     total cpu time spent up to now is        8.6 secs

     total energy              =    -361.62497587 Ry
     estimated scf accuracy    <       0.00026314 Ry

     iteration # 11     ecut=    40.00 Ry     beta= 0.70
     Davidson diagonalization with overlap
     ethr =  6.73E-07,  avg # of iterations =  6.3

     total cpu time spent up to now is        9.6 secs

     total energy              =    -361.62510210 Ry
     estimated scf accuracy    <       0.00029802 Ry

     iteration # 12     ecut=    40.00 Ry     beta= 0.70
     Davidson diagonalization with overlap
     ethr =  6.73E-07,  avg # of iterations =  1.1

     total cpu time spent up to now is       10.1 secs

     total energy              =    -361.62507833 Ry
     estimated scf accuracy    <       0.00013479 Ry

     iteration # 13     ecut=    40.00 Ry     beta= 0.70
     Davidson diagonalization with overlap
     ethr =  3.74E-07,  avg # of iterations =  2.1

     total cpu time spent up to now is       10.6 secs

     total energy              =    -361.62508315 Ry
     estimated scf accuracy    <       0.00003548 Ry

     iteration # 14     ecut=    40.00 Ry     beta= 0.70
     Davidson diagonalization with overlap
     ethr =  9.86E-08,  avg # of iterations =  4.7

     total cpu time spent up to now is       11.3 secs

     total energy              =    -361.62509726 Ry
     estimated scf accuracy    <       0.00000001 Ry

     iteration # 15     ecut=    40.00 Ry     beta= 0.70
     Davidson diagonalization with overlap
     ethr =  2.96E-11,  avg # of iterations = 14.1

     total cpu time spent up to now is       13.5 secs

     total energy              =    -361.62509744 Ry
     estimated scf accuracy    <       0.00000161 Ry

     iteration # 16     ecut=    40.00 Ry     beta= 0.70
     Davidson diagonalization with overlap
     ethr =  2.96E-11,  avg # of iterations = 12.0

     total cpu time spent up to now is       15.4 secs

     End of self-consistent calculation

          k = 0.0000 0.0000 0.0000 (  1387 PWs)   bands (ev):

   -10.8154 -10.0831   1.5948   1.5948   1.6748   1.6821   1.7813   1.7813
     2.8012   2.8012   3.0172   3.0172   3.2988   6.5053   6.5054   7.2032
     7.2942   7.2942

          k = 0.0000 0.0000 0.1562 (  1364 PWs)   bands (ev):

   -10.7131 -10.1955   1.4805   1.5701   1.6096   1.6096   1.7407   1.7407
     2.8439   2.8440   2.9980   2.9980   3.9196   6.2665   6.6251   6.6251
     7.1820   7.1820

          k = 0.0000 0.0000-0.3125 (  1400 PWs)   bands (ev):

   -10.4594 -10.4593   1.4068   1.4069   1.6619   1.6619   1.6620   1.6620
     2.9322   2.9322   2.9323   2.9323   5.0750   5.0750   6.9045   6.9046
     6.9046   6.9046

          k = 0.0000 0.1925 0.0000 (  1373 PWs)   bands (ev):

   -10.6693 -10.0217   1.4440   1.6802   1.7195   1.7909   1.9048   1.9142
     2.7412   2.7989   3.0296   3.1386   3.2695   5.5936   6.1520   6.1852
     7.0193   7.0982

          k = 0.0000 0.1925 0.1562 (  1371 PWs)   bands (ev):

   -10.5772 -10.1191   1.3805   1.4886   1.7010   1.7476   1.8376   1.8579
     2.8085   2.8400   3.0037   3.0406   3.9869   5.6642   5.9268   6.2944
     6.8450   6.9649

          k = 0.0000 0.1925-0.3125 (  1364 PWs)   bands (ev):

   -10.3509 -10.3508   1.3097   1.3097   1.7615   1.7616   1.7669   1.7669
     2.9292   2.9292   2.9363   2.9363   5.0126   5.0127   6.3032   6.3032
     6.6346   6.6347

          k = 0.0000 0.3849 0.0000 (  1361 PWs)   bands (ev):

   -10.3403  -9.9201   1.2904   1.6453   1.8217   2.0259   2.2050   2.3421
     2.7016   2.8732   3.0504   3.1935   3.4674   4.1554   5.0202   5.4226
     6.4820   6.6696

          k = 0.0000 0.3849 0.1562 (  1372 PWs)   bands (ev):

   -10.2768  -9.9792   1.2231   1.4337   1.8651   1.9753   2.1235   2.1333
     2.8017   2.8967   3.0195   3.1223   3.8859   4.4136   5.0540   5.6212
     6.4802   6.4977

          k = 0.0000 0.3849-0.3125 (  1376 PWs)   bands (ev):

   -10.1258 -10.1258   1.1938   1.1938   1.9854   1.9854   1.9867   1.9867
     2.9550   2.9550   2.9765   2.9765   4.2556   4.2556   5.9273   5.9273
     6.0719   6.0719

          k = 0.0000-0.5774 0.0000 (  1376 PWs)   bands (ev):

   -10.1308  -9.9059   1.3716   1.5497   1.8696   2.2324   2.3041   2.3947
     2.8444   2.9716   3.0654   3.1337   3.6088   3.7146   4.4835   5.0144
     6.0303   6.4329

          k = 0.0000-0.5774 0.1562 (  1382 PWs)   bands (ev):

   -10.0934  -9.9339   1.2698   1.3562   1.9292   2.1675   2.2371   2.2963
     2.9643   2.9782   3.0364   3.1309   3.5390   3.6463   5.0735   5.2517
     6.1828   6.2437

          k = 0.0000-0.5774-0.3125 (  1364 PWs)   bands (ev):

   -10.0090 -10.0089   1.1769   1.1769   2.0938   2.0938   2.1608   2.1609
     2.9989   2.9990   3.0880   3.0880   3.5527   3.5527   5.7698   5.7698
     5.9545   5.9546

          k = 0.1667 0.2887 0.0000 (  1366 PWs)   bands (ev):

   -10.4303  -9.9407   1.3965   1.6143   1.8469   1.8640   2.1450   2.2408
     2.6893   2.8202   3.0431   3.2069   3.4169   4.7674   5.0159   5.5738
     6.6263   6.6766

          k = 0.1667 0.2887 0.1562 (  1373 PWs)   bands (ev):

   -10.3579 -10.0112   1.3202   1.4609   1.8204   1.8267   2.0255   2.0830
     2.7856   2.8746   3.0143   3.1118   4.0298   4.9452   5.0843   5.6153
     6.4464   6.6192

          k = 0.1667 0.2887-0.3125 (  1360 PWs)   bands (ev):

   -10.1836 -10.1836   1.2591   1.2591   1.8234   1.8235   1.9813   1.9813
     2.9377   2.9377   2.9733   2.9733   4.6063   4.6063   5.9014   5.9014
     6.1001   6.1001

          k = 0.1667 0.4811 0.0000 (  1371 PWs)   bands (ev):

   -10.1389  -9.9015   1.4749   1.7149   1.8743   2.0859   2.3869   2.4385
     2.7669   2.8537   3.0762   3.2566   3.4247   4.0459   4.4023   4.7625
     5.9774   6.1583

          k = 0.1667 0.4811 0.1562 (  1372 PWs)   bands (ev):

   -10.0998  -9.9315   1.3905   1.5319   1.8617   2.0462   2.2435   2.2892
     2.8329   2.9447   3.0716   3.2442   3.5368   4.0211   4.6665   5.1979
     5.8450   6.2275

          k = 0.1667 0.4811-0.3125 (  1376 PWs)   bands (ev):

   -10.0111 -10.0111   1.3186   1.3186   1.9584   1.9584   2.1688   2.1688
     2.9384   2.9384   3.1317   3.1318   3.7945   3.7945   5.2563   5.2563
     6.0367   6.0367

          k = 0.3333 0.5774 0.0000 (  1368 PWs)   bands (ev):

    -9.9655  -9.9654   1.5781   1.9493   1.9493   2.3055   2.6252   2.6252
     2.7279   2.8589   2.8589   2.8672   3.5442   3.7806   3.7807   5.3924
     5.3924   5.5347

          k = 0.3333 0.5774 0.1562 (  1377 PWs)   bands (ev):

    -9.9599  -9.9599   1.6384   1.7532   1.7532   2.1048   2.4179   2.4179
     2.7612   2.8508   3.1578   3.1578   3.6990   3.6990   3.8895   5.2503
     5.7415   5.7415

          k = 0.3333 0.5774-0.3125 (  1356 PWs)   bands (ev):

    -9.9543  -9.9543   1.5692   1.5692   1.8212   1.8213   2.3572   2.3572
     2.8094   2.8095   3.3319   3.3319   3.6097   3.6098   4.5880   4.5881
     6.0791   6.0791

     highest occupied level (ev):     7.2942

!    total energy              =    -361.62509775 Ry
     estimated scf accuracy    <          4.8E-09 Ry

     The total energy is the sum of the following terms:
     one-electron contribution =    -151.44189506 Ry
     hartree contribution      =     117.22283466 Ry
     xc contribution           =    -109.60975588 Ry
     ewald contribution        =    -217.79628147 Ry

     convergence has been achieved in  16 iterations

     Forces acting on atoms (cartesian axes, Ry/au):

     atom    1 type  1   force =     0.00000000    0.00000000    0.00080719
     atom    2 type  1   force =     0.00000000   -0.00000000    0.00080719
     atom    3 type  2   force =     0.00000000   -0.00000000   -0.00080719
     atom    4 type  2   force =     0.00000000    0.00000000   -0.00080719

     Total force =     0.001614     Total SCF correction =     0.000030


     Computing stress (Cartesian axis) and pressure

          total   stress  (Ry/bohr**3)                   (kbar)     P=       21.11
   0.00013218   0.00000000  -0.00000000           19.44        0.00       -0.00
   0.00000000   0.00013218  -0.00000000            0.00       19.44       -0.00
   0.00000000   0.00000000   0.00016624            0.00        0.00       24.46


     BFGS Geometry Optimization
     Energy error            =      0.0E+00
     Gradient error          =      8.1E-04
     Cell gradient error     =      1.7E-04


     number of scf cycles    =   1
     number of bfgs steps    =   0

     enthalpy new            =    -361.6250977536 Ry

     new trust radius        =       0.0148924014 bohr
     new conv_thr            =       0.0000000100 Ry

     new unit-cell volume =    324.46208 a.u.^3 (    48.08032 Ang^3 )
     density =      5.62051 g/cm^3

CELL_PARAMETERS (alat=  6.14160991)
   1.003304380   0.000000000   0.000000000
  -0.501652190   0.868887081   0.000000000
  -0.000000000  -0.000000000   1.606649762

ATOMIC_POSITIONS (crystal)
Zn            0.3333330000        0.6666670000        0.0000821431
Zn            0.6666670000        0.3333330000        0.5000821431
O             0.3333330000        0.6666670000        0.3819178569
O             0.6666670000        0.3333330000        0.8819178569



     Writing output data file ./tmp/zno_prim.save/
     NEW-OLD atomic charge density approx. for the potential

     Check: negative core charge=   -0.000002
     extrapolated charge   36.38468, renormalised to   36.00000

     total cpu time spent up to now is       17.6 secs

     Self-consistent Calculation

     iteration #  1     ecut=    40.00 Ry     beta= 0.70
     Davidson diagonalization with overlap
     ethr =  1.00E-06,  avg # of iterations = 10.4

     total cpu time spent up to now is       19.1 secs

     total energy              =    -361.55723741 Ry
     estimated scf accuracy    <       0.05202417 Ry

     iteration #  2     ecut=    40.00 Ry     beta= 0.70
     Davidson diagonalization with overlap
     ethr =  1.45E-04,  avg # of iterations =  4.9

     total cpu time spent up to now is       20.0 secs

     total energy              =    -361.61674353 Ry
     estimated scf accuracy    <       0.17834640 Ry

     iteration #  3     ecut=    40.00 Ry     beta= 0.70
     Davidson diagonalization with overlap
     ethr =  1.45E-04,  avg # of iterations =  2.0

     total cpu time spent up to now is       20.6 secs

     total energy              =    -361.62824431 Ry
     estimated scf accuracy    <       0.02874165 Ry

     iteration #  4     ecut=    40.00 Ry     beta= 0.70
     Davidson diagonalization with overlap
     ethr =  7.98E-05,  avg # of iterations =  1.0

     total cpu time spent up to now is       21.0 secs

     total energy              =    -361.62787007 Ry
     estimated scf accuracy    <       0.01468241 Ry

     iteration #  5     ecut=    40.00 Ry     beta= 0.70
     Davidson diagonalization with overlap
     ethr =  4.08E-05,  avg # of iterations =  1.0

     total cpu time spent up to now is       21.4 secs

     total energy              =    -361.62939453 Ry
     estimated scf accuracy    <       0.01078570 Ry

     iteration #  6     ecut=    40.00 Ry     beta= 0.70
     Davidson diagonalization with overlap
     ethr =  3.00E-05,  avg # of iterations =  1.0

     total cpu time spent up to now is       21.9 secs

     total energy              =    -361.62529131 Ry
     estimated scf accuracy    <       0.01372235 Ry

     iteration #  7     ecut=    40.00 Ry     beta= 0.70
     Davidson diagonalization with overlap
     ethr =  3.00E-05,  avg # of iterations =  1.9

     total cpu time spent up to now is       22.4 secs

     total energy              =    -361.62488419 Ry
     estimated scf accuracy    <       0.00383547 Ry

     iteration #  8     ecut=    40.00 Ry     beta= 0.70
     Davidson diagonalization with overlap
     ethr =  1.07E-05,  avg # of iterations =  2.8

     total cpu time spent up to now is       23.0 secs

     total energy              =    -361.62535898 Ry
     estimated scf accuracy    <       0.00073752 Ry

     iteration #  9     ecut=    40.00 Ry     beta= 0.70
     Davidson diagonalization with overlap
     ethr =  2.05E-06,  avg # of iterations =  4.8

     total cpu time spent up to now is       23.7 secs

     total energy              =    -361.62561040 Ry
     estimated scf accuracy    <       0.00079234 Ry

     iteration # 10     ecut=    40.00 Ry     beta= 0.70
     Davidson diagonalization with overlap
     ethr =  2.05E-06,  avg # of iterations =  1.0

     total cpu time spent up to now is       24.2 secs

     total energy              =    -361.62568943 Ry
     estimated scf accuracy    <       0.00100293 Ry

     iteration # 11     ecut=    40.00 Ry     beta= 0.70
     Davidson diagonalization with overlap
     ethr =  2.05E-06,  avg # of iterations =  3.9

     total cpu time spent up to now is       24.9 secs

     total energy              =    -361.62556535 Ry
     estimated scf accuracy    <       0.00186959 Ry

     iteration # 12     ecut=    40.00 Ry     beta= 0.70
     Davidson diagonalization with overlap
     ethr =  2.05E-06,  avg # of iterations =  1.5

     total cpu time spent up to now is       25.4 secs

     total energy              =    -361.62540622 Ry
     estimated scf accuracy    <       0.00104378 Ry

     iteration # 13     ecut=    40.00 Ry     beta= 0.70
     Davidson diagonalization with overlap
     ethr =  2.05E-06,  avg # of iterations =  1.4

     total cpu time spent up to now is       25.8 secs

     total energy              =    -361.62547499 Ry
     estimated scf accuracy    <       0.00058512 Ry

     iteration # 14     ecut=    40.00 Ry     beta= 0.70
     Davidson diagonalization with overlap
     ethr =  1.63E-06,  avg # of iterations =  1.0

     total cpu time spent up to now is       26.3 secs

     total energy              =    -361.62545269 Ry
     estimated scf accuracy    <       0.00065783 Ry

     iteration # 15     ecut=    40.00 Ry     beta= 0.70
     Davidson diagonalization with overlap
     ethr =  1.63E-06,  avg # of iterations =  1.0

     total cpu time spent up to now is       26.8 secs

     total energy              =    -361.62539898 Ry
     estimated scf accuracy    <       0.00052498 Ry

     iteration # 16     ecut=    40.00 Ry     beta= 0.70
     Davidson diagonalization with overlap
     ethr =  1.46E-06,  avg # of iterations =  1.1

     total cpu time spent up to now is       27.2 secs

     total energy              =    -361.62525718 Ry
     estimated scf accuracy    <       0.00037348 Ry

     iteration # 17     ecut=    40.00 Ry     beta= 0.70
     Davidson diagonalization with overlap
     ethr =  1.04E-06,  avg # of iterations =  4.2

     total cpu time spent up to now is       28.0 secs

     total energy              =    -361.62535314 Ry
     estimated scf accuracy    <       0.00000098 Ry

     iteration # 18     ecut=    40.00 Ry     beta= 0.70
     Davidson diagonalization with overlap
     ethr =  2.73E-09,  avg # of iterations = 11.7

     total cpu time spent up to now is       29.8 secs

     total energy              =    -361.62537068 Ry
     estimated scf accuracy    <       0.00006977 Ry

     iteration # 19     ecut=    40.00 Ry     beta= 0.70
     Davidson diagonalization with overlap
     ethr =  2.73E-09,  avg # of iterations =  9.0

     total cpu time spent up to now is       31.1 secs

     total energy              =    -361.62537204 Ry
     estimated scf accuracy    <       0.00001590 Ry

     iteration # 20     ecut=    40.00 Ry     beta= 0.70
     Davidson diagonalization with overlap
     ethr =  2.73E-09,  avg # of iterations =  3.5

     total cpu time spent up to now is       31.7 secs

     total energy              =    -361.62536992 Ry
     estimated scf accuracy    <       0.00001073 Ry

     iteration # 21     ecut=    40.00 Ry     beta= 0.70
     Davidson diagonalization with overlap
     ethr =  2.73E-09,  avg # of iterations =  5.8

     total cpu time spent up to now is       32.7 secs

     total energy              =    -361.62537021 Ry
     estimated scf accuracy    <       0.00000288 Ry

     iteration # 22     ecut=    40.00 Ry     beta= 0.70
     Davidson diagonalization with overlap
     ethr =  2.73E-09,  avg # of iterations =  2.6

     total cpu time spent up to now is       33.3 secs

     total energy              =    -361.62537024 Ry
     estimated scf accuracy    <       0.00000167 Ry

     iteration # 23     ecut=    40.00 Ry     beta= 0.70
     Davidson diagonalization with overlap
     ethr =  2.73E-09,  avg # of iterations =  1.0

     total cpu time spent up to now is       33.7 secs

     total energy              =    -361.62537032 Ry
     estimated scf accuracy    <       0.00000142 Ry

     iteration # 24     ecut=    40.00 Ry     beta= 0.70
     Davidson diagonalization with overlap
     ethr =  2.73E-09,  avg # of iterations =  1.0

     total cpu time spent up to now is       34.2 secs

     total energy              =    -361.62537012 Ry
     estimated scf accuracy    <       0.00000139 Ry

     iteration # 25     ecut=    40.00 Ry     beta= 0.70
     Davidson diagonalization with overlap
     ethr =  2.73E-09,  avg # of iterations =  1.0

     total cpu time spent up to now is       34.7 secs

     total energy              =    -361.62537010 Ry
     estimated scf accuracy    <       0.00000089 Ry

     iteration # 26     ecut=    40.00 Ry     beta= 0.70
     Davidson diagonalization with overlap
     ethr =  2.47E-09,  avg # of iterations =  1.0

     total cpu time spent up to now is       35.2 secs

     total energy              =    -361.62536999 Ry
     estimated scf accuracy    <       0.00000068 Ry

     iteration # 27     ecut=    40.00 Ry     beta= 0.70
     Davidson diagonalization with overlap
     ethr =  1.88E-09,  avg # of iterations =  1.2

     total cpu time spent up to now is       35.6 secs

     total energy              =    -361.62536987 Ry
     estimated scf accuracy    <       0.00000037 Ry

     iteration # 28     ecut=    40.00 Ry     beta= 0.70
     Davidson diagonalization with overlap
     ethr =  1.02E-09,  avg # of iterations =  4.6

     total cpu time spent up to now is       36.4 secs

     total energy              =    -361.62537006 Ry
     estimated scf accuracy    <       0.00000003 Ry

     iteration # 29     ecut=    40.00 Ry     beta= 0.70
     Davidson diagonalization with overlap
     ethr =  8.62E-11,  avg # of iterations =  4.3

     total cpu time spent up to now is       37.1 secs

     total energy              =    -361.62537005 Ry
     estimated scf accuracy    <       0.00000008 Ry

     iteration # 30     ecut=    40.00 Ry     beta= 0.70
     Davidson diagonalization with overlap
     ethr =  8.62E-11,  avg # of iterations =  1.7

     total cpu time spent up to now is       37.6 secs

     total energy              =    -361.62537005 Ry
     estimated scf accuracy    <       0.00000004 Ry

     iteration # 31     ecut=    40.00 Ry     beta= 0.70
     Davidson diagonalization with overlap
     ethr =  8.62E-11,  avg # of iterations =  1.2

     total cpu time spent up to now is       38.1 secs

     total energy              =    -361.62537004 Ry
     estimated scf accuracy    <       0.00000003 Ry

     iteration # 32     ecut=    40.00 Ry     beta= 0.70
     Davidson diagonalization with overlap
     ethr =  8.19E-11,  avg # of iterations =  2.2

     total cpu time spent up to now is       38.6 secs

     End of self-consistent calculation

          k = 0.0000 0.0000 0.0000 (  1387 PWs)   bands (ev):

   -10.8910 -10.1765   1.4851   1.4852   1.5680   1.5935   1.6688   1.6688
     2.6587   2.6587   2.8689   2.8689   3.1468   6.3568   6.3569   7.0457
     7.1328   7.1328

          k =-0.0000-0.0000 0.1556 (  1364 PWs)   bands (ev):

   -10.7911 -10.2860   1.3912   1.4610   1.4999   1.4999   1.6290   1.6290
     2.7002   2.7003   2.8501   2.8501   3.7690   6.1063   6.4749   6.4749
     7.0225   7.0225

          k = 0.0000 0.0000-0.3112 (  1400 PWs)   bands (ev):

   -10.5434 -10.5434   1.3078   1.3079   1.5515   1.5515   1.5515   1.5515
     2.7860   2.7860   2.7861   2.7861   4.9184   4.9184   6.7495   6.7496
     6.7496   6.7496

          k =-0.0000 0.1918 0.0000 (  1373 PWs)   bands (ev):

   -10.7480 -10.1162   1.3407   1.5689   1.6089   1.6810   1.7903   1.8212
     2.6004   2.6565   2.8808   2.9941   3.1167   5.4500   6.0088   6.0242
     6.8645   6.9400

          k =-0.0000 0.1918 0.1556 (  1371 PWs)   bands (ev):

   -10.6581 -10.2112   1.2800   1.3929   1.5897   1.6355   1.7282   1.7442
     2.6658   2.6965   2.8556   2.8921   3.8377   5.5113   5.7756   6.1489
     6.6899   6.8089

          k =-0.0000 0.1918-0.3112 (  1364 PWs)   bands (ev):

   -10.4372 -10.4372   1.2135   1.2135   1.6502   1.6503   1.6547   1.6547
     2.7832   2.7832   2.7901   2.7901   4.8553   4.8553   6.1547   6.1548
     6.4839   6.4839

          k =-0.0000 0.3836 0.0000 (  1361 PWs)   bands (ev):

   -10.4262 -10.0164   1.1952   1.5429   1.7074   1.9127   2.0847   2.2278
     2.5645   2.7293   2.9011   3.0523   3.3234   4.0187   4.8709   5.2910
     6.3336   6.5191

          k =-0.0000 0.3836 0.1556 (  1372 PWs)   bands (ev):

   -10.3643 -10.0741   1.1302   1.3394   1.7504   1.8627   2.0080   2.0145
     2.6601   2.7520   2.8711   2.9731   3.7405   4.2705   4.9124   5.4862
     6.3299   6.3495

          k =-0.0000 0.3836-0.3112 (  1376 PWs)   bands (ev):

   -10.2171 -10.2171   1.1035   1.1035   1.8690   1.8690   1.8727   1.8728
     2.8085   2.8086   2.8298   2.8298   4.1067   4.1067   5.7818   5.7818
     5.9299   5.9299

          k = 0.0000-0.5754-0.0000 (  1376 PWs)   bands (ev):

   -10.2216 -10.0021   1.2738   1.4608   1.7541   2.1232   2.1784   2.2699
     2.7020   2.8252   2.9159   2.9835   3.4572   3.5903   4.3530   4.8906
     5.8848   6.2867

          k = 0.0000-0.5754 0.1556 (  1382 PWs)   bands (ev):

   -10.1851 -10.0296   1.1762   1.2689   1.8128   2.0575   2.1162   2.1737
     2.8191   2.8315   2.8878   2.9807   3.3907   3.5143   4.9368   5.1232
     6.0359   6.1002

          k = 0.0000-0.5754-0.3112 (  1364 PWs)   bands (ev):

   -10.1029 -10.1029   1.0893   1.0893   1.9750   1.9750   2.0467   2.0467
     2.8516   2.8516   2.9394   2.9394   3.4106   3.4107   5.6330   5.6330
     5.8095   5.8095

          k = 0.1661 0.2877 0.0000 (  1366 PWs)   bands (ev):

   -10.5142 -10.0366   1.2982   1.5092   1.7318   1.7530   2.0255   2.1365
     2.5500   2.6778   2.8940   3.0640   3.2694   4.6333   4.8671   5.4326
     6.4747   6.5261

          k = 0.1661 0.2877 0.1556 (  1373 PWs)   bands (ev):

   -10.4435 -10.1054   1.2241   1.3654   1.7069   1.7156   1.9125   1.9648
     2.6436   2.7305   2.8661   2.9626   3.8822   4.7913   4.9504   5.4778
     6.2973   6.4676

          k = 0.1661 0.2877-0.3112 (  1360 PWs)   bands (ev):

   -10.2736 -10.2736   1.1668   1.1669   1.7116   1.7116   1.8650   1.8650
     2.7916   2.7916   2.8266   2.8266   4.4529   4.4529   5.7597   5.7598
     5.9548   5.9549

          k = 0.1661 0.4795 0.0000 (  1371 PWs)   bands (ev):

   -10.2294  -9.9978   1.3754   1.6149   1.7649   1.9732   2.2627   2.3155
     2.6274   2.7111   2.9269   3.1098   3.2873   3.9042   4.2782   4.6304
     5.8355   6.0127

          k = 0.1661 0.4795 0.1556 (  1372 PWs)   bands (ev):

   -10.1913 -10.0272   1.2955   1.4383   1.7497   1.9350   2.1240   2.1668
     2.6905   2.7987   2.9229   3.0919   3.3987   3.8767   4.5396   5.0638
     5.7041   6.0811

          k = 0.1661 0.4795-0.3112 (  1376 PWs)   bands (ev):

   -10.1050 -10.1049   1.2279   1.2279   1.8468   1.8468   2.0492   2.0492
     2.7928   2.7928   2.9821   2.9821   3.6509   3.6509   5.1224   5.1224
     5.8924   5.8924

          k = 0.3322 0.5754 0.0000 (  1368 PWs)   bands (ev):

   -10.0601 -10.0600   1.4708   1.8404   1.8404   2.2008   2.5003   2.5003
     2.5894   2.7231   2.7258   2.7258   3.4184   3.6342   3.6343   5.2545
     5.2545   5.3998

          k = 0.3322 0.5754 0.1556 (  1377 PWs)   bands (ev):

   -10.0548 -10.0547   1.5312   1.6516   1.6516   1.9986   2.2971   2.2971
     2.6212   2.7072   3.0123   3.0123   3.5537   3.5537   3.7644   5.1177
     5.6011   5.6012

          k = 0.3322 0.5754-0.3112 (  1356 PWs)   bands (ev):

   -10.0495 -10.0494   1.4730   1.4731   1.7144   1.7144   2.2371   2.2371
     2.6674   2.6675   3.1765   3.1765   3.4690   3.4690   4.4603   4.4603
     5.9357   5.9357

     highest occupied level (ev):     7.1328

!    total energy              =    -361.62537004 Ry
     estimated scf accuracy    <          9.9E-09 Ry

     The total energy is the sum of the following terms:
     one-electron contribution =    -152.67760890 Ry
     hartree contribution      =     117.65739697 Ry
     xc contribution           =    -109.58651078 Ry
     ewald contribution        =    -217.01864733 Ry

     convergence has been achieved in  32 iterations

     Forces acting on atoms (cartesian axes, Ry/au):

     atom    1 type  1   force =    -0.00000000    0.00000000    0.00090836
     atom    2 type  1   force =    -0.00000000   -0.00000000    0.00090836
     atom    3 type  2   force =     0.00000000   -0.00000000   -0.00090836
     atom    4 type  2   force =     0.00000000    0.00000000   -0.00090836

     Total force =     0.001817     Total SCF correction =     0.000004


     Computing stress (Cartesian axis) and pressure

          total   stress  (Ry/bohr**3)                   (kbar)     P=        1.27
   0.00000012  -0.00000000  -0.00000000            0.02       -0.00       -0.00
   0.00000000   0.00000012  -0.00000000            0.00        0.02       -0.00
  -0.00000000  -0.00000000   0.00002574           -0.00       -0.00        3.79

     Energy error            =      2.7E-04
     Gradient error          =      9.1E-04
     Cell gradient error     =      2.6E-05


     number of scf cycles    =   2
     number of bfgs steps    =   1

     enthalpy old            =    -361.6250977536 Ry
     enthalpy new            =    -361.6253700357 Ry

     CASE: enthalpy_new < enthalpy_old

     new trust radius        =       0.0027151587 bohr
     new conv_thr            =            1.0E-10 Ry

     new unit-cell volume =    324.73796 a.u.^3 (    48.12120 Ang^3 )
     density =      5.61574 g/cm^3

CELL_PARAMETERS (alat=  6.14160991)
   1.003352800   0.000000000   0.000000000
  -0.501676400   0.868929013   0.000000000
  -0.000000000  -0.000000000   1.607860651

ATOMIC_POSITIONS (crystal)
Zn            0.3333330000        0.6666670000        0.0001835943
Zn            0.6666670000        0.3333330000        0.5001835943
O             0.3333330000        0.6666670000        0.3818164057
O             0.6666670000        0.3333330000        0.8818164057



     Writing output data file ./tmp/zno_prim.save/
     NEW-OLD atomic charge density approx. for the potential

     Check: negative core charge=   -0.000002
     extrapolated charge   36.03058, renormalised to   36.00000

     total cpu time spent up to now is       40.9 secs

     Self-consistent Calculation

     iteration #  1     ecut=    40.00 Ry     beta= 0.70
     Davidson diagonalization with overlap
     ethr =  1.00E-06,  avg # of iterations =  3.8

     total cpu time spent up to now is       41.7 secs

     total energy              =    -361.62503904 Ry
     estimated scf accuracy    <       0.00024400 Ry

     iteration #  2     ecut=    40.00 Ry     beta= 0.70
     Davidson diagonalization with overlap
     ethr =  6.78E-07,  avg # of iterations =  3.9

     total cpu time spent up to now is       42.6 secs

     total energy              =    -361.62532655 Ry
     estimated scf accuracy    <       0.00095056 Ry

     iteration #  3     ecut=    40.00 Ry     beta= 0.70
     Davidson diagonalization with overlap
     ethr =  6.78E-07,  avg # of iterations =  2.0

     total cpu time spent up to now is       43.3 secs

     total energy              =    -361.62539001 Ry
     estimated scf accuracy    <       0.00014278 Ry

     iteration #  4     ecut=    40.00 Ry     beta= 0.70
     Davidson diagonalization with overlap
     ethr =  3.97E-07,  avg # of iterations =  1.1

     total cpu time spent up to now is       43.7 secs

     total energy              =    -361.62539096 Ry
     estimated scf accuracy    <       0.00007162 Ry

     iteration #  5     ecut=    40.00 Ry     beta= 0.70
     Davidson diagonalization with overlap
     ethr =  1.99E-07,  avg # of iterations =  1.0

     total cpu time spent up to now is       44.2 secs

     total energy              =    -361.62539167 Ry
     estimated scf accuracy    <       0.00005707 Ry

     iteration #  6     ecut=    40.00 Ry     beta= 0.70
     Davidson diagonalization with overlap
     ethr =  1.59E-07,  avg # of iterations =  1.0

     total cpu time spent up to now is       44.6 secs

     total energy              =    -361.62539209 Ry
     estimated scf accuracy    <       0.00005250 Ry

     iteration #  7     ecut=    40.00 Ry     beta= 0.70
     Davidson diagonalization with overlap
     ethr =  1.46E-07,  avg # of iterations =  1.0

     total cpu time spent up to now is       45.1 secs

     total energy              =    -361.62539070 Ry
     estimated scf accuracy    <       0.00004946 Ry

     iteration #  8     ecut=    40.00 Ry     beta= 0.70
     Davidson diagonalization with overlap
     ethr =  1.37E-07,  avg # of iterations =  1.0

     total cpu time spent up to now is       45.6 secs

     total energy              =    -361.62537423 Ry
     estimated scf accuracy    <       0.00004364 Ry

     iteration #  9     ecut=    40.00 Ry     beta= 0.70
     Davidson diagonalization with overlap
     ethr =  1.21E-07,  avg # of iterations =  2.2

     total cpu time spent up to now is       46.1 secs

     total energy              =    -361.62537523 Ry
     estimated scf accuracy    <       0.00000590 Ry

     iteration # 10     ecut=    40.00 Ry     beta= 0.70
     Davidson diagonalization with overlap
     ethr =  1.64E-08,  avg # of iterations =  3.6

     total cpu time spent up to now is       46.9 secs

     total energy              =    -361.62537837 Ry
     estimated scf accuracy    <       0.00000047 Ry

     iteration # 11     ecut=    40.00 Ry     beta= 0.70
     Davidson diagonalization with overlap
     ethr =  1.29E-09,  avg # of iterations =  6.8

     total cpu time spent up to now is       48.0 secs

     total energy              =    -361.62537885 Ry
     estimated scf accuracy    <       0.00000248 Ry

     iteration # 12     ecut=    40.00 Ry     beta= 0.70
     Davidson diagonalization with overlap
     ethr =  1.29E-09,  avg # of iterations =  1.5

     total cpu time spent up to now is       48.5 secs

     total energy              =    -361.62537869 Ry
     estimated scf accuracy    <       0.00000229 Ry

     iteration # 13     ecut=    40.00 Ry     beta= 0.70
     Davidson diagonalization with overlap
     ethr =  1.29E-09,  avg # of iterations =  3.1

     total cpu time spent up to now is       49.2 secs

     total energy              =    -361.62537882 Ry
     estimated scf accuracy    <       0.00000223 Ry

     iteration # 14     ecut=    40.00 Ry     beta= 0.70
     Davidson diagonalization with overlap
     ethr =  1.29E-09,  avg # of iterations =  1.1

     total cpu time spent up to now is       49.6 secs

     total energy              =    -361.62537829 Ry
     estimated scf accuracy    <       0.00000224 Ry

     iteration # 15     ecut=    40.00 Ry     beta= 0.70
     Davidson diagonalization with overlap
     ethr =  1.29E-09,  avg # of iterations =  2.1

     total cpu time spent up to now is       50.1 secs

     total energy              =    -361.62537851 Ry
     estimated scf accuracy    <       0.00000098 Ry

     iteration # 16     ecut=    40.00 Ry     beta= 0.70
     Davidson diagonalization with overlap
     ethr =  1.29E-09,  avg # of iterations =  1.0

     total cpu time spent up to now is       50.5 secs

     total energy              =    -361.62537830 Ry
     estimated scf accuracy    <       0.00000131 Ry

     iteration # 17     ecut=    40.00 Ry     beta= 0.70
     Davidson diagonalization with overlap
     ethr =  1.29E-09,  avg # of iterations =  1.9

     total cpu time spent up to now is       51.0 secs

     total energy              =    -361.62537824 Ry
     estimated scf accuracy    <       0.00000095 Ry

     iteration # 18     ecut=    40.00 Ry     beta= 0.70
     Davidson diagonalization with overlap
     ethr =  1.29E-09,  avg # of iterations =  1.6

     total cpu time spent up to now is       51.5 secs

     total energy              =    -361.62537807 Ry
     estimated scf accuracy    <       0.00000059 Ry

     iteration # 19     ecut=    40.00 Ry     beta= 0.70
     Davidson diagonalization with overlap
     ethr =  1.29E-09,  avg # of iterations =  3.0

     total cpu time spent up to now is       52.1 secs

     total energy              =    -361.62537809 Ry
     estimated scf accuracy    <       0.00000011 Ry

     iteration # 20     ecut=    40.00 Ry     beta= 0.70
     Davidson diagonalization with overlap
     ethr =  3.19E-10,  avg # of iterations =  6.2

     total cpu time spent up to now is       53.1 secs

     total energy              =    -361.62537814 Ry
     estimated scf accuracy    <       0.00000010 Ry

     iteration # 21     ecut=    40.00 Ry     beta= 0.70
     Davidson diagonalization with overlap
     ethr =  2.91E-10,  avg # of iterations =  2.0

     total cpu time spent up to now is       53.6 secs

     total energy              =    -361.62537814 Ry
     estimated scf accuracy    <       0.00000002 Ry

     iteration # 22     ecut=    40.00 Ry     beta= 0.70
     Davidson diagonalization with overlap
     ethr =  4.58E-11,  avg # of iterations =  6.9

     total cpu time spent up to now is       54.7 secs

     total energy              =    -361.62537816 Ry
     estimated scf accuracy    <       0.00000002 Ry

     iteration # 23     ecut=    40.00 Ry     beta= 0.70
     Davidson diagonalization with overlap
     ethr =  4.58E-11,  avg # of iterations =  2.0

     total cpu time spent up to now is       55.2 secs

     total energy              =    -361.62537815 Ry
     estimated scf accuracy    <          5.8E-09 Ry

     iteration # 24     ecut=    40.00 Ry     beta= 0.70
     Davidson diagonalization with overlap
     ethr =  1.61E-11,  avg # of iterations =  6.0

     total cpu time spent up to now is       56.1 secs

     total energy              =    -361.62537816 Ry
     estimated scf accuracy    <          9.0E-09 Ry

     iteration # 25     ecut=    40.00 Ry     beta= 0.70
     Davidson diagonalization with overlap
     ethr =  1.61E-11,  avg # of iterations =  1.1

     total cpu time spent up to now is       56.5 secs

     total energy              =    -361.62537816 Ry
     estimated scf accuracy    <          4.4E-09 Ry

     iteration # 26     ecut=    40.00 Ry     beta= 0.70
     Davidson diagonalization with overlap
     ethr =  1.21E-11,  avg # of iterations =  4.0

     total cpu time spent up to now is       57.2 secs

     total energy              =    -361.62537816 Ry
     estimated scf accuracy    <          2.9E-10 Ry

     iteration # 27     ecut=    40.00 Ry     beta= 0.70
     Davidson diagonalization with overlap
     ethr =  8.13E-13,  avg # of iterations =  4.2

     total cpu time spent up to now is       58.0 secs

     End of self-consistent calculation

          k = 0.0000 0.0000 0.0000 (  1387 PWs)   bands (ev):

   -10.8971 -10.1849   1.4769   1.4769   1.5568   1.5844   1.6608   1.6608
     2.6476   2.6476   2.8571   2.8571   3.1343   6.3454   6.3454   7.0336
     7.1204   7.1204

          k =-0.0000-0.0000 0.1555 (  1364 PWs)   bands (ev):

   -10.7976 -10.2941   1.3824   1.4505   1.4918   1.4918   1.6211   1.6211
     2.6890   2.6890   2.8383   2.8383   3.7557   6.0933   6.4633   6.4634
     7.0102   7.0102

          k = 0.0000 0.0000-0.3110 (  1400 PWs)   bands (ev):

   -10.5507 -10.5506   1.2986   1.2986   1.5435   1.5436   1.5436   1.5436
     2.7744   2.7744   2.7745   2.7745   4.9047   4.9047   6.7376   6.7376
     6.7376   6.7377

          k =-0.0000 0.1918 0.0000 (  1373 PWs)   bands (ev):

   -10.7543 -10.1245   1.3328   1.5604   1.5996   1.6713   1.7821   1.8126
     2.5894   2.6456   2.8690   2.9818   3.1041   5.4388   5.9980   6.0118
     6.8525   6.9281

          k =-0.0000 0.1918 0.1555 (  1371 PWs)   bands (ev):

   -10.6647 -10.2192   1.2719   1.3849   1.5813   1.6257   1.7196   1.7361
     2.6546   2.6854   2.8438   2.8801   3.8244   5.4993   5.7640   6.1380
     6.6767   6.7972

          k =-0.0000 0.1918-0.3110 (  1364 PWs)   bands (ev):

   -10.4446 -10.4445   1.2056   1.2056   1.6414   1.6414   1.6465   1.6465
     2.7716   2.7716   2.7783   2.7784   4.8422   4.8422   6.1421   6.1421
     6.4726   6.4726

          k =-0.0000 0.3836 0.0000 (  1361 PWs)   bands (ev):

   -10.4330 -10.0245   1.1875   1.5347   1.6981   1.9030   2.0759   2.2177
     2.5542   2.7184   2.8892   3.0403   3.3111   4.0070   4.8602   5.2818
     6.3215   6.5085

          k =-0.0000 0.3836 0.1555 (  1372 PWs)   bands (ev):

   -10.3713 -10.0820   1.1228   1.3320   1.7412   1.8536   1.9986   2.0057
     2.6488   2.7409   2.8593   2.9608   3.7286   4.2586   4.9009   5.4767
     6.3166   6.3390

          k =-0.0000 0.3836-0.3110 (  1376 PWs)   bands (ev):

   -10.2246 -10.2246   1.0965   1.0965   1.8601   1.8601   1.8638   1.8638
     2.7971   2.7971   2.8178   2.8178   4.0952   4.0953   5.7679   5.7680
     5.9198   5.9199

          k = 0.0000-0.5754-0.0000 (  1376 PWs)   bands (ev):

   -10.2287 -10.0100   1.2657   1.4536   1.7445   2.1151   2.1659   2.2606
     2.6904   2.8141   2.9040   2.9718   3.4442   3.5824   4.3419   4.8824
     5.8720   6.2768

          k = 0.0000-0.5754 0.1555 (  1382 PWs)   bands (ev):

   -10.1924 -10.0374   1.1686   1.2621   1.8032   2.0494   2.1052   2.1644
     2.8073   2.8203   2.8761   2.9691   3.3784   3.5051   4.9243   5.1145
     6.0224   6.0905

          k = 0.0000-0.5754-0.3110 (  1364 PWs)   bands (ev):

   -10.1105 -10.1104   1.0825   1.0825   1.9655   1.9655   2.0376   2.0376
     2.8402   2.8402   2.9277   2.9277   3.3994   3.3995   5.6237   5.6237
     5.7955   5.7956

          k = 0.1661 0.2877 0.0000 (  1366 PWs)   bands (ev):

   -10.5208 -10.0448   1.2907   1.5004   1.7214   1.7449   2.0163   2.1279
     2.5390   2.6668   2.8821   3.0517   3.2567   4.6226   4.8557   5.4227
     6.4638   6.5142

          k = 0.1661 0.2877 0.1555 (  1373 PWs)   bands (ev):

   -10.4504 -10.1134   1.2166   1.3578   1.6973   1.7071   1.9037   1.9558
     2.6322   2.7195   2.8543   2.9503   3.8694   4.7796   4.9389   5.4681
     6.2865   6.4543

          k = 0.1661 0.2877-0.3110 (  1360 PWs)   bands (ev):

   -10.2811 -10.2810   1.1597   1.1597   1.7029   1.7029   1.8560   1.8560
     2.7800   2.7800   2.8147   2.8147   4.4410   4.4410   5.7478   5.7478
     5.9429   5.9429

          k = 0.1661 0.4795 0.0000 (  1371 PWs)   bands (ev):

   -10.2365 -10.0057   1.3671   1.6068   1.7558   1.9644   2.2517   2.3055
     2.6169   2.6995   2.9151   3.0985   3.2765   3.8929   4.2698   4.6197
     5.8243   6.0020

          k = 0.1661 0.4795 0.1555 (  1372 PWs)   bands (ev):

   -10.1986 -10.0351   1.2878   1.4308   1.7405   1.9263   2.1146   2.1571
     2.6790   2.7873   2.9114   3.0800   3.3875   3.8659   4.5306   5.0517
     5.6942   6.0680

          k = 0.1661 0.4795-0.3110 (  1376 PWs)   bands (ev):

   -10.1126 -10.1125   1.2210   1.2210   1.8377   1.8377   2.0401   2.0401
     2.7812   2.7813   2.9703   2.9704   3.6397   3.6397   5.1130   5.1130
     5.8786   5.8786

          k = 0.3322 0.5754 0.0000 (  1368 PWs)   bands (ev):

   -10.0676 -10.0676   1.4609   1.8324   1.8324   2.1916   2.4883   2.4883
     2.5784   2.7116   2.7166   2.7166   3.4102   3.6231   3.6231   5.2428
     5.2428   5.3910

          k = 0.3322 0.5754 0.1555 (  1377 PWs)   bands (ev):

   -10.0624 -10.0623   1.5215   1.6438   1.6438   1.9894   2.2881   2.2881
     2.6102   2.6957   3.0006   3.0007   3.5423   3.5423   3.7561   5.1090
     5.5884   5.5884

          k = 0.3322 0.5754-0.3110 (  1356 PWs)   bands (ev):

   -10.0571 -10.0570   1.4659   1.4659   1.7049   1.7049   2.2288   2.2288
     2.6562   2.6562   3.1644   3.1644   3.4573   3.4574   4.4518   4.4518
     5.9218   5.9219

     highest occupied level (ev):     7.1204

!    total energy              =    -361.62537816 Ry
     estimated scf accuracy    <          1.5E-11 Ry

     The total energy is the sum of the following terms:
     one-electron contribution =    -152.77362477 Ry
     hartree contribution      =     117.69113991 Ry
     xc contribution           =    -109.58481545 Ry
     ewald contribution        =    -216.95807784 Ry

     convergence has been achieved in  27 iterations

     Forces acting on atoms (cartesian axes, Ry/au):

     atom    1 type  1   force =    -0.00000000    0.00000000    0.00089051
     atom    2 type  1   force =    -0.00000000   -0.00000000    0.00089051
     atom    3 type  2   force =     0.00000000   -0.00000000   -0.00089051
     atom    4 type  2   force =     0.00000000    0.00000000   -0.00089051

     Total force =     0.001781     Total SCF correction =     0.000000


     Computing stress (Cartesian axis) and pressure

          total   stress  (Ry/bohr**3)                   (kbar)     P=       -0.19
  -0.00000767   0.00000000  -0.00000000           -1.13        0.00       -0.00
  -0.00000000  -0.00000767  -0.00000000           -0.00       -1.13       -0.00
  -0.00000000  -0.00000000   0.00001156           -0.00       -0.00        1.70

     Energy error            =      8.1E-06
     Gradient error          =      8.9E-04
     Cell gradient error     =      1.2E-05


     number of scf cycles    =   3
     number of bfgs steps    =   2

     enthalpy old            =    -361.6253700357 Ry
     enthalpy new            =    -361.6253781591 Ry

     CASE: enthalpy_new < enthalpy_old

     new trust radius        =       0.0040714007 bohr
     new conv_thr            =            1.0E-10 Ry

     new unit-cell volume =    324.94962 a.u.^3 (    48.15257 Ang^3 )
     density =      5.61208 g/cm^3

CELL_PARAMETERS (alat=  6.14160991)
   1.003113310   0.000000000  -0.000000000
  -0.501556655   0.868721609  -0.000000000
  -0.000000000  -0.000000000   1.609676985

ATOMIC_POSITIONS (crystal)
Zn            0.3333330000        0.6666670000        0.0004180522
Zn            0.6666670000        0.3333330000        0.5004180522
O             0.3333330000        0.6666670000        0.3815819478
O             0.6666670000        0.3333330000        0.8815819478



     Writing output data file ./tmp/zno_prim.save/
     NEW-OLD atomic charge density approx. for the potential

     Check: negative core charge=   -0.000002
     extrapolated charge   36.02344, renormalised to   36.00000

     total cpu time spent up to now is       60.1 secs

     Self-consistent Calculation

     iteration #  1     ecut=    40.00 Ry     beta= 0.70
     Davidson diagonalization with overlap
     ethr =  1.00E-06,  avg # of iterations =  6.0

     total cpu time spent up to now is       61.1 secs

     total energy              =    -361.62516137 Ry
     estimated scf accuracy    <       0.00016951 Ry

     iteration #  2     ecut=    40.00 Ry     beta= 0.70
     Davidson diagonalization with overlap
     ethr =  4.71E-07,  avg # of iterations =  4.6

     total cpu time spent up to now is       62.0 secs

     total energy              =    -361.62535489 Ry
     estimated scf accuracy    <       0.00061264 Ry

     iteration #  3     ecut=    40.00 Ry     beta= 0.70
     Davidson diagonalization with overlap
     ethr =  4.71E-07,  avg # of iterations =  2.0

     total cpu time spent up to now is       62.6 secs

     total energy              =    -361.62539766 Ry
     estimated scf accuracy    <       0.00009320 Ry

     iteration #  4     ecut=    40.00 Ry     beta= 0.70
     Davidson diagonalization with overlap
     ethr =  2.59E-07,  avg # of iterations =  1.1

     total cpu time spent up to now is       63.0 secs

     total energy              =    -361.62538846 Ry
     estimated scf accuracy    <       0.00004700 Ry

     iteration #  5     ecut=    40.00 Ry     beta= 0.70
     Davidson diagonalization with overlap
     ethr =  1.31E-07,  avg # of iterations =  1.6

     total cpu time spent up to now is       63.4 secs

     total energy              =    -361.62538205 Ry
     estimated scf accuracy    <       0.00001569 Ry

     iteration #  6     ecut=    40.00 Ry     beta= 0.70
     Davidson diagonalization with overlap
     ethr =  4.36E-08,  avg # of iterations =  4.0

     total cpu time spent up to now is       64.1 secs

     total energy              =    -361.62538880 Ry
     estimated scf accuracy    <       0.00000121 Ry

     iteration #  7     ecut=    40.00 Ry     beta= 0.70
     Davidson diagonalization with overlap
     ethr =  3.36E-09,  avg # of iterations =  4.6

     total cpu time spent up to now is       64.9 secs

     total energy              =    -361.62538883 Ry
     estimated scf accuracy    <       0.00000157 Ry

     iteration #  8     ecut=    40.00 Ry     beta= 0.70
     Davidson diagonalization with overlap
     ethr =  3.36E-09,  avg # of iterations =  1.9

     total cpu time spent up to now is       65.4 secs

     total energy              =    -361.62538868 Ry
     estimated scf accuracy    <       0.00000063 Ry

     iteration #  9     ecut=    40.00 Ry     beta= 0.70
     Davidson diagonalization with overlap
     ethr =  1.76E-09,  avg # of iterations =  3.8

     total cpu time spent up to now is       66.0 secs

     total energy              =    -361.62538889 Ry
     estimated scf accuracy    <       0.00000013 Ry

     iteration # 10     ecut=    40.00 Ry     beta= 0.70
     Davidson diagonalization with overlap
     ethr =  3.67E-10,  avg # of iterations =  4.5

     total cpu time spent up to now is       66.8 secs

     total energy              =    -361.62538884 Ry
     estimated scf accuracy    <       0.00000041 Ry

     iteration # 11     ecut=    40.00 Ry     beta= 0.70
     Davidson diagonalization with overlap
     ethr =  3.67E-10,  avg # of iterations =  2.0

     total cpu time spent up to now is       67.4 secs

     total energy              =    -361.62538874 Ry
     estimated scf accuracy    <       0.00000020 Ry

     iteration # 12     ecut=    40.00 Ry     beta= 0.70
     Davidson diagonalization with overlap
     ethr =  3.67E-10,  avg # of iterations =  6.0

     total cpu time spent up to now is       68.3 secs

     total energy              =    -361.62538885 Ry
     estimated scf accuracy    <       0.00000012 Ry

     iteration # 13     ecut=    40.00 Ry     beta= 0.70
     Davidson diagonalization with overlap
     ethr =  3.26E-10,  avg # of iterations =  1.0

     total cpu time spent up to now is       68.6 secs

     total energy              =    -361.62538882 Ry
     estimated scf accuracy    <       0.00000009 Ry

     iteration # 14     ecut=    40.00 Ry     beta= 0.70
     Davidson diagonalization with overlap
     ethr =  2.51E-10,  avg # of iterations =  2.0

     total cpu time spent up to now is       69.2 secs

     total energy              =    -361.62538882 Ry
     estimated scf accuracy    <       0.00000002 Ry

     iteration # 15     ecut=    40.00 Ry     beta= 0.70
     Davidson diagonalization with overlap
     ethr =  6.04E-11,  avg # of iterations =  3.5

     total cpu time spent up to now is       69.8 secs

     total energy              =    -361.62538882 Ry
     estimated scf accuracy    <          6.1E-09 Ry

     iteration # 16     ecut=    40.00 Ry     beta= 0.70
     Davidson diagonalization with overlap
     ethr =  1.69E-11,  avg # of iterations =  5.1

     total cpu time spent up to now is       70.5 secs

     total energy              =    -361.62538883 Ry
     estimated scf accuracy    <          3.0E-10 Ry

     iteration # 17     ecut=    40.00 Ry     beta= 0.70
     Davidson diagonalization with overlap
     ethr =  8.47E-13,  avg # of iterations = 10.1

     total cpu time spent up to now is       72.0 secs

     total energy              =    -361.62538883 Ry
     estimated scf accuracy    <       0.00000002 Ry

     iteration # 18     ecut=    40.00 Ry     beta= 0.70
     Davidson diagonalization with overlap
     ethr =  8.47E-13,  avg # of iterations =  7.9

     total cpu time spent up to now is       73.2 secs

     total energy              =    -361.62538883 Ry
     estimated scf accuracy    <          6.8E-09 Ry

     iteration # 19     ecut=    40.00 Ry     beta= 0.70
     Davidson diagonalization with overlap
     ethr =  8.47E-13,  avg # of iterations =  8.2

     total cpu time spent up to now is       74.4 secs

     total energy              =    -361.62538883 Ry
     estimated scf accuracy    <          6.6E-10 Ry

     iteration # 20     ecut=    40.00 Ry     beta= 0.70
     Davidson diagonalization with overlap
     ethr =  8.47E-13,  avg # of iterations =  1.1

     total cpu time spent up to now is       74.8 secs

     total energy              =    -361.62538883 Ry
     estimated scf accuracy    <          1.0E-09 Ry

     iteration # 21     ecut=    40.00 Ry     beta= 0.70
     Davidson diagonalization with overlap
     ethr =  8.47E-13,  avg # of iterations =  1.0

     total cpu time spent up to now is       75.2 secs

     total energy              =    -361.62538883 Ry
     estimated scf accuracy    <          8.7E-10 Ry

     iteration # 22     ecut=    40.00 Ry     beta= 0.70
     Davidson diagonalization with overlap
     ethr =  8.47E-13,  avg # of iterations =  5.0

     total cpu time spent up to now is       76.0 secs

     End of self-consistent calculation

          k = 0.0000 0.0000 0.0000 (  1387 PWs)   bands (ev):

   -10.9019 -10.1924   1.4715   1.4716   1.5448   1.5736   1.6566   1.6566
     2.6393   2.6393   2.8478   2.8478   3.1233   6.3364   6.3365   7.0251
     7.1113   7.1113

          k = 0.0000 0.0000 0.1553 (  1364 PWs)   bands (ev):

   -10.8027 -10.3011   1.3728   1.4395   1.4867   1.4867   1.6167   1.6168
     2.6804   2.6804   2.8290   2.8290   3.7434   6.0832   6.4543   6.4544
     7.0011   7.0011

          k =-0.0000-0.0000-0.3106 (  1400 PWs)   bands (ev):

   -10.5568 -10.5567   1.2890   1.2891   1.5389   1.5389   1.5389   1.5390
     2.7654   2.7654   2.7654   2.7654   4.8924   4.8924   6.7285   6.7286
     6.7286   6.7286

          k =-0.0000 0.1919 0.0000 (  1373 PWs)   bands (ev):

   -10.7591 -10.1317   1.3272   1.5544   1.5916   1.6626   1.7776   1.8043
     2.5811   2.6374   2.8596   2.9707   3.0932   5.4298   5.9901   6.0029
     6.8440   6.9200

          k =-0.0000 0.1919 0.1553 (  1371 PWs)   bands (ev):

   -10.6699 -10.2261   1.2656   1.3782   1.5756   1.6167   1.7131   1.7314
     2.6458   2.6769   2.8344   2.8702   3.8119   5.4901   5.7553   6.1300
     6.6655   6.7891

          k =-0.0000 0.1919-0.3106 (  1364 PWs)   bands (ev):

   -10.4506 -10.4505   1.1990   1.1990   1.6346   1.6347   1.6415   1.6415
     2.7626   2.7626   2.7688   2.7689   4.8312   4.8312   6.1309   6.1310
     6.4645   6.4645

          k =-0.0000 0.3837 0.0000 (  1361 PWs)   bands (ev):

   -10.4379 -10.0311   1.1815   1.5285   1.6907   1.8944   2.0706   2.2084
     2.5473   2.7105   2.8797   3.0295   3.3000   3.9966   4.8536   5.2760
     6.3117   6.5025

          k =-0.0000 0.3837 0.1553 (  1372 PWs)   bands (ev):

   -10.3766 -10.0884   1.1170   1.3266   1.7341   1.8460   1.9907   2.0001
     2.6400   2.7328   2.8501   2.9504   3.7186   4.2486   4.8915   5.4708
     6.3045   6.3330

          k =-0.0000 0.3837-0.3106 (  1376 PWs)   bands (ev):

   -10.2305 -10.2304   1.0914   1.0914   1.8537   1.8537   1.8568   1.8568
     2.7884   2.7884   2.8078   2.8078   4.0868   4.0868   5.7541   5.7541
     5.9139   5.9139

          k = 0.0000-0.5756-0.0000 (  1376 PWs)   bands (ev):

   -10.2339 -10.0161   1.2591   1.4485   1.7362   2.1095   2.1519   2.2544
     2.6807   2.8061   2.8946   2.9631   3.4328   3.5801   4.3322   4.8779
     5.8603   6.2720

          k = 0.0000-0.5756 0.1553 (  1382 PWs)   bands (ev):

   -10.1978 -10.0435   1.1626   1.2571   1.7953   2.0439   2.0940   2.1579
     2.7978   2.8122   2.8671   2.9603   3.3681   3.5003   4.9123   5.1099
     6.0093   6.0856

          k = 0.0000-0.5756-0.3106 (  1364 PWs)   bands (ev):

   -10.1163 -10.1162   1.0776   1.0776   1.9583   1.9583   2.0302   2.0303
     2.8317   2.8318   2.9187   2.9187   3.3910   3.3911   5.6189   5.6189
     5.7814   5.7815

          k = 0.1661 0.2878 0.0000 (  1366 PWs)   bands (ev):

   -10.5257 -10.0516   1.2854   1.4932   1.7111   1.7401   2.0099   2.1211
     2.5306   2.6586   2.8726   3.0405   3.2450   4.6140   4.8471   5.4169
     6.4574   6.5051

          k = 0.1661 0.2878 0.1553 (  1373 PWs)   bands (ev):

   -10.4556 -10.1200   1.2110   1.3520   1.6890   1.7012   1.8969   1.9494
     2.6230   2.7113   2.8450   2.9400   3.8577   4.7713   4.9285   5.4623
     6.2800   6.4425

          k = 0.1661 0.2878-0.3106 (  1360 PWs)   bands (ev):

   -10.2870 -10.2869   1.1543   1.1543   1.6965   1.6966   1.8493   1.8494
     2.7709   2.7710   2.8050   2.8050   4.4321   4.4321   5.7377   5.7377
     5.9330   5.9330

          k = 0.1661 0.4796 0.0000 (  1371 PWs)   bands (ev):

   -10.2417 -10.0118   1.3601   1.6005   1.7483   1.9578   2.2411   2.2976
     2.6096   2.6897   2.9061   3.0902   3.2682   3.8841   4.2653   4.6110
     5.8159   5.9954

          k = 0.1661 0.4796 0.1553 (  1372 PWs)   bands (ev):

   -10.2040 -10.0411   1.2817   1.4251   1.7329   1.9196   2.1073   2.1495
     2.6698   2.7784   2.9026   3.0711   3.3783   3.8586   4.5251   5.0404
     5.6889   6.0561

          k = 0.1661 0.4796-0.3106 (  1376 PWs)   bands (ev):

   -10.1183 -10.1183   1.2158   1.2158   1.8301   1.8302   2.0337   2.0337
     2.7721   2.7721   2.9613   2.9613   3.6314   3.6314   5.1077   5.1077
     5.8649   5.8649

          k = 0.3323 0.5756 0.0000 (  1368 PWs)   bands (ev):

   -10.0732 -10.0732   1.4512   1.8269   1.8269   2.1840   2.4754   2.4754
     2.5698   2.7025   2.7119   2.7120   3.4061   3.6152   3.6153   5.2325
     5.2326   5.3879

          k = 0.3323 0.5756 0.1553 (  1377 PWs)   bands (ev):

   -10.0680 -10.0680   1.5120   1.6381   1.6381   1.9814   2.2820   2.2820
     2.6016   2.6868   2.9914   2.9914   3.5336   3.5336   3.7520   5.1056
     5.5762   5.5763

          k = 0.3323 0.5756-0.3106 (  1356 PWs)   bands (ev):

   -10.0628 -10.0627   1.4608   1.4608   1.6962   1.6962   2.2240   2.2241
     2.6474   2.6474   3.1552   3.1552   3.4476   3.4477   4.4479   4.4480
     5.9079   5.9079

     highest occupied level (ev):     7.1113

!    total energy              =    -361.62538883 Ry
     estimated scf accuracy    <          3.2E-12 Ry

     The total energy is the sum of the following terms:
     one-electron contribution =    -152.84438105 Ry
     hartree contribution      =     117.71521443 Ry
     xc contribution           =    -109.58339833 Ry
     ewald contribution        =    -216.91282388 Ry

     convergence has been achieved in  22 iterations

     Forces acting on atoms (cartesian axes, Ry/au):

     atom    1 type  1   force =     0.00000000    0.00000000    0.00075403
     atom    2 type  1   force =     0.00000000   -0.00000000    0.00075403
     atom    3 type  2   force =    -0.00000000   -0.00000000   -0.00075403
     atom    4 type  2   force =    -0.00000000   -0.00000000   -0.00075403

     Total force =     0.001508     Total SCF correction =     0.000001


     Computing stress (Cartesian axis) and pressure

          total   stress  (Ry/bohr**3)                   (kbar)     P=       -1.36
  -0.00001221   0.00000000  -0.00000000           -1.80        0.00       -0.00
   0.00000000  -0.00001221  -0.00000000            0.00       -1.80       -0.00
  -0.00000000  -0.00000000  -0.00000332           -0.00       -0.00       -0.49

     Energy error            =      1.1E-05
     Gradient error          =      7.5E-04
     Cell gradient error     =      1.2E-05


     number of scf cycles    =   4
     number of bfgs steps    =   3

     enthalpy old            =    -361.6253781591 Ry
     enthalpy new            =    -361.6253888279 Ry

     CASE: enthalpy_new < enthalpy_old

     new trust radius        =       0.0054825560 bohr
     new conv_thr            =            1.0E-10 Ry

     new unit-cell volume =    324.99248 a.u.^3 (    48.15892 Ang^3 )
     density =      5.61134 g/cm^3

CELL_PARAMETERS (alat=  6.14160991)
   1.002417560   0.000000000  -0.000000000
  -0.501208780   0.868119072  -0.000000000
  -0.000000000  -0.000000000   1.612124829

ATOMIC_POSITIONS (crystal)
Zn            0.3333330000        0.6666670000        0.0008584859
Zn            0.6666670000        0.3333330000        0.5008584859
O             0.3333330000        0.6666670000        0.3811415141
O             0.6666670000        0.3333330000        0.8811415141



     Writing output data file ./tmp/zno_prim.save/
     NEW-OLD atomic charge density approx. for the potential

     Check: negative core charge=   -0.000002
     extrapolated charge   36.00475, renormalised to   36.00000

     total cpu time spent up to now is       78.2 secs

     Self-consistent Calculation

     iteration #  1     ecut=    40.00 Ry     beta= 0.70
     Davidson diagonalization with overlap
     ethr =  1.00E-06,  avg # of iterations =  7.4

     Threshold (ethr) on eigenvalues was too large:
     Diagonalizing with lowered threshold

     Davidson diagonalization with overlap
     ethr =  2.49E-08,  avg # of iterations =  5.8

     total cpu time spent up to now is       80.3 secs

     total energy              =    -361.62538909 Ry
     estimated scf accuracy    <       0.00001115 Ry

     iteration #  2     ecut=    40.00 Ry     beta= 0.70
     Davidson diagonalization with overlap
     ethr =  3.10E-08,  avg # of iterations =  4.0

     total cpu time spent up to now is       81.1 secs

     total energy              =    -361.62539677 Ry
     estimated scf accuracy    <       0.00002643 Ry

     iteration #  3     ecut=    40.00 Ry     beta= 0.70
     Davidson diagonalization with overlap
     ethr =  3.10E-08,  avg # of iterations =  2.0

     total cpu time spent up to now is       81.8 secs

     total energy              =    -361.62539869 Ry
     estimated scf accuracy    <       0.00000279 Ry

     iteration #  4     ecut=    40.00 Ry     beta= 0.70
     Davidson diagonalization with overlap
     ethr =  7.75E-09,  avg # of iterations =  2.6

     total cpu time spent up to now is       82.4 secs

     total energy              =    -361.62539915 Ry
     estimated scf accuracy    <       0.00000015 Ry

     iteration #  5     ecut=    40.00 Ry     beta= 0.70
     Davidson diagonalization with overlap
     ethr =  4.23E-10,  avg # of iterations =  6.0

     total cpu time spent up to now is       83.4 secs

     total energy              =    -361.62539926 Ry
     estimated scf accuracy    <       0.00000009 Ry

     iteration #  6     ecut=    40.00 Ry     beta= 0.70
     Davidson diagonalization with overlap
     ethr =  2.38E-10,  avg # of iterations =  5.7

     total cpu time spent up to now is       84.3 secs

     total energy              =    -361.62539928 Ry
     estimated scf accuracy    <       0.00000013 Ry

     iteration #  7     ecut=    40.00 Ry     beta= 0.70
     Davidson diagonalization with overlap
     ethr =  2.38E-10,  avg # of iterations =  2.1

     total cpu time spent up to now is       84.8 secs

     total energy              =    -361.62539926 Ry
     estimated scf accuracy    <       0.00000003 Ry

     iteration #  8     ecut=    40.00 Ry     beta= 0.70
     Davidson diagonalization with overlap
     ethr =  8.89E-11,  avg # of iterations =  7.7

     total cpu time spent up to now is       86.0 secs

     total energy              =    -361.62539929 Ry
     estimated scf accuracy    <       0.00000012 Ry

     iteration #  9     ecut=    40.00 Ry     beta= 0.70
     Davidson diagonalization with overlap
     ethr =  8.89E-11,  avg # of iterations =  3.4

     total cpu time spent up to now is       86.6 secs

     total energy              =    -361.62539928 Ry
     estimated scf accuracy    <       0.00000004 Ry

     iteration # 10     ecut=    40.00 Ry     beta= 0.70
     Davidson diagonalization with overlap
     ethr =  8.89E-11,  avg # of iterations =  4.7

     total cpu time spent up to now is       87.4 secs

     total energy              =    -361.62539929 Ry
     estimated scf accuracy    <          9.1E-10 Ry

     iteration # 11     ecut=    40.00 Ry     beta= 0.70
     Davidson diagonalization with overlap
     ethr =  2.53E-12,  avg # of iterations =  8.3

     total cpu time spent up to now is       88.6 secs

     total energy              =    -361.62539929 Ry
     estimated scf accuracy    <       0.00000002 Ry

     iteration # 12     ecut=    40.00 Ry     beta= 0.70
     Davidson diagonalization with overlap
     ethr =  2.53E-12,  avg # of iterations =  5.5

     total cpu time spent up to now is       89.5 secs

     total energy              =    -361.62539929 Ry
     estimated scf accuracy    <          7.0E-09 Ry

     iteration # 13     ecut=    40.00 Ry     beta= 0.70
     Davidson diagonalization with overlap
     ethr =  2.53E-12,  avg # of iterations =  6.5

     total cpu time spent up to now is       90.5 secs

     total energy              =    -361.62539929 Ry
     estimated scf accuracy    <          3.5E-10 Ry

     iteration # 14     ecut=    40.00 Ry     beta= 0.70
     Davidson diagonalization with overlap
     ethr =  9.78E-13,  avg # of iterations =  4.5

     total cpu time spent up to now is       91.3 secs

     End of self-consistent calculation

          k = 0.0000 0.0000 0.0000 (  1387 PWs)   bands (ev):

   -10.9030 -10.1964   1.4729   1.4729   1.5337   1.5619   1.6605   1.6605
     2.6379   2.6379   2.8453   2.8453   3.1176   6.3335   6.3335   7.0254
     7.1101   7.1101

          k = 0.0000 0.0000 0.1551 (  1364 PWs)   bands (ev):

   -10.8043 -10.3047   1.3637   1.4295   1.4885   1.4886   1.6204   1.6204
     2.6787   2.6787   2.8266   2.8266   3.7357   6.0805   6.4516   6.4516
     6.9996   6.9996

          k =-0.0000-0.0000-0.3101 (  1400 PWs)   bands (ev):

   -10.5594 -10.5593   1.2808   1.2808   1.5418   1.5418   1.5418   1.5418
     2.7631   2.7631   2.7632   2.7632   4.8856   4.8856   6.7264   6.7264
     6.7264   6.7265

          k =-0.0000 0.1920 0.0000 (  1373 PWs)   bands (ev):

   -10.7600 -10.1353   1.3275   1.5547   1.5872   1.6582   1.7812   1.7986
     2.5795   2.6363   2.8570   2.9644   3.0880   5.4268   5.9886   6.0022
     6.8437   6.9206

          k =-0.0000 0.1920 0.1551 (  1371 PWs)   bands (ev):

   -10.6712 -10.2293   1.2640   1.3752   1.5765   1.6110   1.7125   1.7346
     2.6436   2.6754   2.8319   2.8666   3.8035   5.4879   5.7538   6.1288
     6.6605   6.7894

          k =-0.0000 0.1920-0.3101 (  1364 PWs)   bands (ev):

   -10.4529 -10.4528   1.1961   1.1961   1.6333   1.6334   1.6436   1.6436
     2.7604   2.7604   2.7658   2.7659   4.8264   4.8265   6.1250   6.1250
     6.4640   6.4640

          k =-0.0000 0.3840 0.0000 (  1361 PWs)   bands (ev):

   -10.4386 -10.0335   1.1802   1.5277   1.6883   1.8894   2.0732   2.2026
     2.5484   2.7101   2.8771   3.0231   3.2936   3.9910   4.8564   5.2774
     6.3082   6.5067

          k =-0.0000 0.3840 0.1551 (  1372 PWs)   bands (ev):

   -10.3775 -10.0907   1.1158   1.3260   1.7324   1.8429   1.9875   2.0019
     2.6377   2.7321   2.8477   2.9460   3.7144   4.2444   4.8884   5.4726
     6.2973   6.3368

          k =-0.0000 0.3840-0.3101 (  1376 PWs)   bands (ev):

   -10.2322 -10.2321   1.0908   1.0908   1.8538   1.8538   1.8549   1.8550
     2.7868   2.7868   2.8038   2.8038   4.0859   4.0859   5.7434   5.7435
     5.9166   5.9166

          k = 0.0000-0.5760-0.0000 (  1376 PWs)   bands (ev):

   -10.2345 -10.0177   1.2568   1.4483   1.7325   2.1097   2.1380   2.2560
     2.6768   2.8058   2.8922   2.9620   3.4268   3.5892   4.3268   4.8810
     5.8529   6.2781

          k = 0.0000-0.5760 0.1551 (  1382 PWs)   bands (ev):

   -10.1987 -10.0450   1.1608   1.2568   1.7922   2.0444   2.0849   2.1584
     2.7944   2.8117   2.8652   2.9589   3.3639   3.5053   4.9037   5.1133
     5.9998   6.0913

          k = 0.0000-0.5760-0.3101 (  1364 PWs)   bands (ev):

   -10.1176 -10.1175   1.0771   1.0771   1.9568   1.9568   2.0275   2.0275
     2.8307   2.8307   2.9168   2.9168   3.3900   3.3901   5.6234   5.6234
     5.7703   5.7703

          k = 0.1663 0.2880 0.0000 (  1366 PWs)   bands (ev):

   -10.5264 -10.0543   1.2858   1.4905   1.7034   1.7426   2.0104   2.1193
     2.5288   2.6575   2.8699   3.0333   3.2380   4.6110   4.8455   5.4197
     6.4607   6.5032

          k = 0.1663 0.2880 0.1551 (  1373 PWs)   bands (ev):

   -10.4567 -10.1225   1.2103   1.3508   1.6849   1.7016   1.8956   1.9497
     2.6200   2.7105   2.8425   2.9357   3.8505   4.7709   4.9226   5.4646
     6.2829   6.4359

          k = 0.1663 0.2880-0.3101 (  1360 PWs)   bands (ev):

   -10.2888 -10.2888   1.1535   1.1535   1.6961   1.6961   1.8486   1.8486
     2.7686   2.7686   2.8017   2.8017   4.4305   4.4305   5.7331   5.7331
     5.9294   5.9294

          k = 0.1663 0.4800 0.0000 (  1371 PWs)   bands (ev):

   -10.2423 -10.0135   1.3571   1.5990   1.7453   1.9567   2.2336   2.2961
     2.6100   2.6856   2.9042   3.0893   3.2665   3.8817   4.2693   4.6076
     5.8144   5.9982

          k = 0.1663 0.4800 0.1551 (  1372 PWs)   bands (ev):

   -10.2048 -10.0427   1.2799   1.4237   1.7298   1.9179   2.1054   2.1482
     2.6668   2.7765   2.9013   3.0697   3.3752   3.8597   4.5271   5.0331
     5.6935   6.0488

          k = 0.1663 0.4800-0.3101 (  1376 PWs)   bands (ev):

   -10.1197 -10.1196   1.2151   1.2151   1.8273   1.8273   2.0336   2.0336
     2.7696   2.7696   2.9594   2.9594   3.6306   3.6306   5.1112   5.1113
     5.8543   5.8543

          k = 0.3325 0.5760 0.0000 (  1368 PWs)   bands (ev):

   -10.0742 -10.0741   1.4439   1.8273   1.8273   2.1812   2.4636   2.4636
     2.5677   2.7001   2.7170   2.7170   3.4100   3.6155   3.6156   5.2270
     5.2270   5.3967

          k = 0.3325 0.5760 0.1551 (  1377 PWs)   bands (ev):

   -10.0691 -10.0690   1.5053   1.6370   1.6370   1.9778   2.2823   2.2824
     2.5996   2.6844   2.9889   2.9890   3.5323   3.5323   3.7565   5.1134
     5.5679   5.5679

          k = 0.3325 0.5760-0.3101 (  1356 PWs)   bands (ev):

   -10.0640 -10.0639   1.4602   1.4602   1.6909   1.6910   2.2270   2.2270
     2.6453   2.6453   3.1535   3.1535   3.4439   3.4440   4.4540   4.4540
     5.8968   5.8968

     highest occupied level (ev):     7.1101

!    total energy              =    -361.62539929 Ry
     estimated scf accuracy    <          1.8E-11 Ry

     The total energy is the sum of the following terms:
     one-electron contribution =    -152.85187897 Ry
     hartree contribution      =     117.71622206 Ry
     xc contribution           =    -109.58303973 Ry
     ewald contribution        =    -216.90670266 Ry

     convergence has been achieved in  14 iterations

     Forces acting on atoms (cartesian axes, Ry/au):

     atom    1 type  1   force =    -0.00000000   -0.00000000    0.00036943
     atom    2 type  1   force =     0.00000000    0.00000000    0.00036943
     atom    3 type  2   force =    -0.00000000   -0.00000000   -0.00036943
     atom    4 type  2   force =    -0.00000000   -0.00000000   -0.00036943

     Total force =     0.000739     Total SCF correction =     0.000000


     Computing stress (Cartesian axis) and pressure

          total   stress  (Ry/bohr**3)                   (kbar)     P=       -1.61
  -0.00000951   0.00000000   0.00000000           -1.40        0.00        0.00
   0.00000000  -0.00000951   0.00000000            0.00       -1.40        0.00
  -0.00000000  -0.00000000  -0.00001387           -0.00       -0.00       -2.04

     Energy error            =      1.0E-05
     Gradient error          =      3.7E-04
     Cell gradient error     =      1.4E-05


     number of scf cycles    =   5
     number of bfgs steps    =   4

     enthalpy old            =    -361.6253888279 Ry
     enthalpy new            =    -361.6253992927 Ry

     CASE: enthalpy_new < enthalpy_old

     new trust radius        =       0.0016469954 bohr
     new conv_thr            =            1.0E-10 Ry

     new unit-cell volume =    324.83313 a.u.^3 (    48.13530 Ang^3 )
     density =      5.61409 g/cm^3

CELL_PARAMETERS (alat=  6.14160991)
   1.002062834   0.000000000  -0.000000000
  -0.501031417   0.867811871  -0.000000000
  -0.000000000  -0.000000000   1.612475356

ATOMIC_POSITIONS (crystal)
Zn            0.3333330000        0.6666670000        0.0010248316
Zn            0.6666670000        0.3333330000        0.5010248316
O             0.3333330000        0.6666670000        0.3809751684
O             0.6666670000        0.3333330000        0.8809751684



     Writing output data file ./tmp/zno_prim.save/
     NEW-OLD atomic charge density approx. for the potential

     Check: negative core charge=   -0.000002
     extrapolated charge   35.98234, renormalised to   36.00000

     total cpu time spent up to now is       93.4 secs

     Self-consistent Calculation

     iteration #  1     ecut=    40.00 Ry     beta= 0.70
     Davidson diagonalization with overlap
     ethr =  1.00E-06,  avg # of iterations =  4.9

     total cpu time spent up to now is       94.3 secs

     total energy              =    -361.62527175 Ry
     estimated scf accuracy    <       0.00008831 Ry

     iteration #  2     ecut=    40.00 Ry     beta= 0.70
     Davidson diagonalization with overlap
     ethr =  2.45E-07,  avg # of iterations =  4.5

     total cpu time spent up to now is       95.2 secs

[...]
     Sum         847     421    127                31443    11175    1937



     bravais-lattice index     =            4
     lattice parameter (alat)  =       6.1416  a.u.
     unit-cell volume          =     324.7211 (a.u.)^3
     number of atoms/cell      =            4
     number of atomic types    =            2
     number of electrons       =        36.00
     number of Kohn-Sham states=           18
     kinetic-energy cutoff     =      40.0000  Ry
     charge density cutoff     =     320.0000  Ry
     scf convergence threshold =      1.0E-10
     mixing beta               =       0.7000
     number of iterations used =            8  plain     mixing
     press convergence thresh. =      5.0E-01
     Exchange-correlation= PBE
                           (   1   4   3   4   0   0   0)

     celldm(1)=   6.141610  celldm(2)=   0.000000  celldm(3)=   1.600000
     celldm(4)=   0.000000  celldm(5)=   0.000000  celldm(6)=   0.000000

     crystal axes: (cart. coord. in units of alat)
               a(1) = (   1.001960   0.000000  -0.000000 )  
               a(2) = (  -0.500980   0.867723  -0.000000 )  
               a(3) = (  -0.000000  -0.000000   1.612250 )  

     reciprocal axes: (cart. coord. in units 2 pi/alat)
               b(1) = (  0.998044  0.576221  0.000000 )  
               b(2) = ( -0.000000  1.152442  0.000000 )  
               b(3) = (  0.000000  0.000000  0.620251 )  


     PseudoPot. # 1 for Zn read from file:
     ../pseudo/Zn.UPF
     MD5 check sum: c4fdec089fdc15c46897c8a96be99b2c
     Pseudo is Ultrasoft + core correction, Zval = 12.0
     Generated using &quot;atomic&quot; code by A. Dal Corso  v.6.2.2
     Using radial grid of 1201 points,  6 beta functions with: 
                l(1) =   0
                l(2) =   0
                l(3) =   1
                l(4) =   1
                l(5) =   2
                l(6) =   2
     Q(r) pseudized with 0 coefficients 


     PseudoPot. # 2 for O  read from file:
     ../pseudo/O.UPF
     MD5 check sum: b15f85fac327ccb5e22ba8b88818af9f
     Pseudo is Ultrasoft + core correction, Zval =  6.0
     Generated using &quot;atomic&quot; code by A. Dal Corso  v.6.3MaX
     Using radial grid of 1095 points,  4 beta functions with: 
                l(1) =   0
                l(2) =   0
                l(3) =   1
                l(4) =   1
     Q(r) pseudized with 0 coefficients 


     atomic species   valence    mass     pseudopotential
        Zn            12.00    65.38000     Zn( 1.00)
        O              6.00    15.99000     O ( 1.00)

     12 Sym. Ops. (no inversion) found ( 6 have fractional translation)



   Cartesian axes

     site n.     atom                  positions (alat units)
         1           Zn  tau(   1) = (  -0.0000005   0.5784822   0.0017156  )
         2           Zn  tau(   2) = (   0.5009805   0.2892407   0.8078405  )
         3           O   tau(   3) = (  -0.0000005   0.5784822   0.6141639  )
         4           O   tau(   4) = (   0.5009805   0.2892407   1.4202888  )

     number of k points=    21
                       cart. coord. in units 2pi/alat
        k(    1) = (   0.0000000   0.0000000   0.0000000), wk =   0.0138889
        k(    2) = (   0.0000000   0.0000000   0.1550628), wk =   0.0277778
        k(    3) = (  -0.0000000  -0.0000000  -0.3101256), wk =   0.0138889
        k(    4) = (  -0.0000000   0.1920736   0.0000000), wk =   0.0833333
        k(    5) = (  -0.0000000   0.1920736   0.1550628), wk =   0.1666667
        k(    6) = (  -0.0000000   0.1920736  -0.3101256), wk =   0.0833333
        k(    7) = (  -0.0000000   0.3841472   0.0000000), wk =   0.0833333
        k(    8) = (  -0.0000000   0.3841472   0.1550628), wk =   0.1666667
        k(    9) = (  -0.0000000   0.3841472  -0.3101256), wk =   0.0833333
        k(   10) = (   0.0000000  -0.5762208  -0.0000000), wk =   0.0416667
        k(   11) = (   0.0000000  -0.5762208   0.1550628), wk =   0.0833333
        k(   12) = (   0.0000000  -0.5762208  -0.3101256), wk =   0.0416667
        k(   13) = (   0.1663406   0.2881104   0.0000000), wk =   0.0833333
        k(   14) = (   0.1663406   0.2881104   0.1550628), wk =   0.1666667
        k(   15) = (   0.1663406   0.2881104  -0.3101256), wk =   0.0833333
        k(   16) = (   0.1663406   0.4801840   0.0000000), wk =   0.1666667
        k(   17) = (   0.1663406   0.4801840   0.1550628), wk =   0.3333333
        k(   18) = (   0.1663406   0.4801840  -0.3101256), wk =   0.1666667
        k(   19) = (   0.3326813   0.5762208   0.0000000), wk =   0.0277778
        k(   20) = (   0.3326813   0.5762208   0.1550628), wk =   0.0555556
        k(   21) = (   0.3326813   0.5762208  -0.3101256), wk =   0.0277778

     Dense  grid:    31443 G-vectors     FFT dimensions: (  36,  36,  60)

     Smooth grid:    11175 G-vectors     FFT dimensions: (  25,  25,  40)

     Estimated max dynamical RAM per process >      37.15 MB

     Estimated total dynamical RAM >     148.61 MB

     Check: negative core charge=   -0.000002

     Initial potential from superposition of free atoms

     starting charge   35.99255, renormalised to   36.00000
     Starting wfcs are   26 randomized atomic wfcs

     total cpu time spent up to now is      121.0 secs

     Self-consistent Calculation

     iteration #  1     ecut=    40.00 Ry     beta= 0.70
     Davidson diagonalization with overlap
     ethr =  1.00E-06,  avg # of iterations = 11.9

     total cpu time spent up to now is      123.1 secs

     total energy              =    -361.29773933 Ry
     estimated scf accuracy    <       0.72413041 Ry

     iteration #  2     ecut=    40.00 Ry     beta= 0.70
     Davidson diagonalization with overlap
     ethr =  2.01E-03,  avg # of iterations =  5.2

     total cpu time spent up to now is      124.0 secs

     total energy              =    -361.47257359 Ry
     estimated scf accuracy    <       0.85567391 Ry

     iteration #  3     ecut=    40.00 Ry     beta= 0.70
     Davidson diagonalization with overlap
     ethr =  2.01E-03,  avg # of iterations =  2.0

     total cpu time spent up to now is      124.5 secs

     total energy              =    -361.45611428 Ry
     estimated scf accuracy    <       0.15411177 Ry

     iteration #  4     ecut=    40.00 Ry     beta= 0.70
     Davidson diagonalization with overlap
     ethr =  4.28E-04,  avg # of iterations =  6.9

     total cpu time spent up to now is      125.5 secs

     total energy              =    -361.81614249 Ry
     estimated scf accuracy    <       0.29266014 Ry

     iteration #  5     ecut=    40.00 Ry     beta= 0.70
     Davidson diagonalization with overlap
     ethr =  4.28E-04,  avg # of iterations =  3.0

     total cpu time spent up to now is      126.1 secs

     total energy              =    -361.58584625 Ry
     estimated scf accuracy    <       0.63699106 Ry

     iteration #  6     ecut=    40.00 Ry     beta= 0.70
     Davidson diagonalization with overlap
     ethr =  4.28E-04,  avg # of iterations =  4.0

     total cpu time spent up to now is      126.8 secs

     total energy              =    -361.58809022 Ry
     estimated scf accuracy    <       0.10606403 Ry

     iteration #  7     ecut=    40.00 Ry     beta= 0.70
     Davidson diagonalization with overlap
     ethr =  2.95E-04,  avg # of iterations =  4.4

     total cpu time spent up to now is      127.5 secs

     total energy              =    -361.62268115 Ry
     estimated scf accuracy    <       0.00002648 Ry

     iteration #  8     ecut=    40.00 Ry     beta= 0.70
     Davidson diagonalization with overlap
     c_bands:  2 eigenvalues not converged
     ethr =  7.36E-08,  avg # of iterations = 14.0

     total cpu time spent up to now is      129.6 secs

     total energy              =    -361.62647881 Ry
     estimated scf accuracy    <       0.00453832 Ry

     iteration #  9     ecut=    40.00 Ry     beta= 0.70
     Davidson diagonalization with overlap
     ethr =  7.36E-08,  avg # of iterations =  9.5

     total cpu time spent up to now is      131.1 secs

     total energy              =    -361.62558170 Ry
     estimated scf accuracy    <       0.00133424 Ry

     iteration # 10     ecut=    40.00 Ry     beta= 0.70
     Davidson diagonalization with overlap
     ethr =  7.36E-08,  avg # of iterations = 13.0

     total cpu time spent up to now is      133.1 secs

     total energy              =    -361.62630706 Ry
     estimated scf accuracy    <       0.00355645 Ry

     iteration # 11     ecut=    40.00 Ry     beta= 0.70
     Davidson diagonalization with overlap
     ethr =  7.36E-08,  avg # of iterations =  9.5

     total cpu time spent up to now is      134.6 secs

     total energy              =    -361.62618776 Ry
     estimated scf accuracy    <       0.00073231 Ry

     iteration # 12     ecut=    40.00 Ry     beta= 0.70
     Davidson diagonalization with overlap
     ethr =  7.36E-08,  avg # of iterations =  8.8

     total cpu time spent up to now is      135.9 secs

     total energy              =    -361.62631537 Ry
     estimated scf accuracy    <       0.00000070 Ry

     iteration # 13     ecut=    40.00 Ry     beta= 0.70
     Davidson diagonalization with overlap
     ethr =  1.95E-09,  avg # of iterations =  5.2

     total cpu time spent up to now is      136.6 secs

     total energy              =    -361.62631517 Ry
     estimated scf accuracy    <       0.00000197 Ry

     iteration # 14     ecut=    40.00 Ry     beta= 0.70
     Davidson diagonalization with overlap
     ethr =  1.95E-09,  avg # of iterations =  2.6

     total cpu time spent up to now is      137.2 secs

     total energy              =    -361.62631499 Ry
     estimated scf accuracy    <       0.00000068 Ry

     iteration # 15     ecut=    40.00 Ry     beta= 0.70
     Davidson diagonalization with overlap
     ethr =  1.88E-09,  avg # of iterations =  5.0

     total cpu time spent up to now is      137.8 secs

     total energy              =    -361.62631527 Ry
     estimated scf accuracy    <       0.00000004 Ry

     iteration # 16     ecut=    40.00 Ry     beta= 0.70
     Davidson diagonalization with overlap
     ethr =  1.15E-10,  avg # of iterations =  3.7

     total cpu time spent up to now is      138.5 secs

     total energy              =    -361.62631527 Ry
     estimated scf accuracy    <       0.00000005 Ry

     iteration # 17     ecut=    40.00 Ry     beta= 0.70
     Davidson diagonalization with overlap
     ethr =  1.15E-10,  avg # of iterations =  1.9

     total cpu time spent up to now is      139.0 secs

     total energy              =    -361.62631527 Ry
     estimated scf accuracy    <       0.00000001 Ry

     iteration # 18     ecut=    40.00 Ry     beta= 0.70
     Davidson diagonalization with overlap
     ethr =  3.92E-11,  avg # of iterations =  4.4

     total cpu time spent up to now is      139.6 secs

     total energy              =    -361.62631527 Ry
     estimated scf accuracy    <          1.3E-10 Ry

     iteration # 19     ecut=    40.00 Ry     beta= 0.70
     Davidson diagonalization with overlap
     ethr =  3.67E-13,  avg # of iterations =  7.6

     total cpu time spent up to now is      140.8 secs

     End of self-consistent calculation

          k = 0.0000 0.0000 0.0000 (  1387 PWs)   bands (ev):

   -10.8963 -10.1887   1.4838   1.4838   1.5385   1.5645   1.6732   1.6732
     2.6496   2.6496   2.8573   2.8573   3.1278   6.3438   6.3439   7.0402
     7.1236   7.1236

          k = 0.0000 0.0000 0.1551 (  1388 PWs)   bands (ev):

   -10.7974 -10.2973   1.3665   1.4337   1.4995   1.4995   1.6325   1.6325
     2.6904   2.6904   2.8384   2.8384   3.7449   6.0922   6.4609   6.4609
     7.0120   7.0120

          k =-0.0000-0.0000-0.3101 (  1400 PWs)   bands (ev):

   -10.5522 -10.5522   1.2853   1.2853   1.5535   1.5535   1.5535   1.5535
     2.7749   2.7749   2.7750   2.7750   4.8970   4.8971   6.7383   6.7384
     6.7384   6.7384

          k =-0.0000 0.1921 0.0000 (  1379 PWs)   bands (ev):

   -10.7530 -10.1275   1.3372   1.5651   1.5949   1.6663   1.7936   1.8051
     2.5910   2.6481   2.8689   2.9739   3.0988   5.4369   5.9984   6.0156
     6.8573   6.9348

          k =-0.0000 0.1921 0.1551 (  1388 PWs)   bands (ev):

   -10.6641 -10.2216   1.2721   1.3819   1.5870   1.6181   1.7221   1.7468
     2.6550   2.6872   2.8438   2.8780   3.8124   5.4992   5.7652   6.1394
     6.6715   6.8016

          k =-0.0000 0.1921-0.3101 (  1376 PWs)   bands (ev):

   -10.4455 -10.4455   1.2029   1.2029   1.6426   1.6426   1.6550   1.6550
     2.7722   2.7723   2.7773   2.7773   4.8379   4.8379   6.1349   6.1349
     6.4760   6.4760

          k =-0.0000 0.3841 0.0000 (  1383 PWs)   bands (ev):

   -10.4309 -10.0254   1.1878   1.5367   1.6973   1.8964   2.0858   2.2101
     2.5611   2.7225   2.8890   3.0320   3.3032   4.0001   4.8694   5.2878
     6.3169   6.5214

          k =-0.0000 0.3841 0.1551 (  1386 PWs)   bands (ev):

   -10.3698 -10.0826   1.1236   1.3343   1.7418   1.8508   1.9959   2.0137
     2.6492   2.7443   2.8597   2.9571   3.7247   4.2551   4.8990   5.4836
     6.3068   6.3512

          k =-0.0000 0.3841-0.3101 (  1384 PWs)   bands (ev):

   -10.2243 -10.2242   1.0983   1.0984   1.8638   1.8638   1.8644   1.8644
     2.7989   2.7989   2.8150   2.8150   4.0982   4.0983   5.7522   5.7522
     5.9296   5.9296

          k = 0.0000-0.5762-0.0000 (  1392 PWs)   bands (ev):

   -10.2265 -10.0094   1.2645   1.4568   1.7408   2.1186   2.1419   2.2685
     2.6872   2.8185   2.9043   2.9746   3.4377   3.6050   4.3354   4.8916
     5.8598   6.2938

          k = 0.0000-0.5762 0.1551 (  1388 PWs)   bands (ev):

   -10.1906 -10.0368   1.1684   1.2647   1.8010   2.0537   2.0908   2.1701
     2.8056   2.8243   2.8774   2.9714   3.3753   3.5201   4.9117   5.1251
     6.0087   6.1058

          k = 0.0000-0.5762-0.3101 (  1404 PWs)   bands (ev):

   -10.1094 -10.1094   1.0841   1.0841   1.9664   1.9665   2.0350   2.0350
     2.8430   2.8430   2.9289   2.9289   3.4020   3.4021   5.6351   5.6351
     5.7753   5.7753

          k = 0.1663 0.2881 0.0000 (  1382 PWs)   bands (ev):

   -10.5189 -10.0463   1.2948   1.4988   1.7097   1.7538   2.0216   2.1281
     2.5401   2.6693   2.8819   3.0417   3.2478   4.6204   4.8563   5.4327
     6.4756   6.5134

          k = 0.1663 0.2881 0.1551 (  1389 PWs)   bands (ev):

   -10.4491 -10.1145   1.2184   1.3586   1.6929   1.7118   1.9047   1.9605
     2.6310   2.7227   2.8545   2.9467   3.8598   4.7835   4.9314   5.4760
     6.2968   6.4460

          k = 0.1663 0.2881-0.3101 (  1384 PWs)   bands (ev):

   -10.2811 -10.2810   1.1608   1.1608   1.7056   1.7057   1.8583   1.8583
     2.7803   2.7803   2.8131   2.8131   4.4426   4.4426   5.7426   5.7427
     5.9395   5.9395

          k = 0.1663 0.4802 0.0000 (  1386 PWs)   bands (ev):

   -10.2342 -10.0052   1.3647   1.6075   1.7534   1.9656   2.2408   2.3068
     2.6226   2.6959   2.9165   3.1016   3.2777   3.8928   4.2814   4.6169
     5.8255   6.0112

          k = 0.1663 0.4802 0.1551 (  1390 PWs)   bands (ev):

   -10.1967 -10.0344   1.2872   1.4311   1.7380   1.9263   2.1147   2.1587
     2.6779   2.7883   2.9137   3.0823   3.3859   3.8729   4.5383   5.0411
     5.7073   6.0577

          k = 0.1663 0.4802-0.3101 (  1394 PWs)   bands (ev):

   -10.1115 -10.1114   1.2222   1.2222   1.8356   1.8356   2.0438   2.0439
     2.7811   2.7812   2.9717   2.9717   3.6426   3.6426   5.1241   5.1241
     5.8620   5.8620

          k = 0.3327 0.5762 0.0000 (  1380 PWs)   bands (ev):

   -10.0659 -10.0658   1.4502   1.8364   1.8365   2.1903   2.4685   2.4685
     2.5790   2.7118   2.7314   2.7314   3.4216   3.6285   3.6285   5.2359
     5.2359   5.4135

          k = 0.3327 0.5762 0.1551 (  1389 PWs)   bands (ev):

   -10.0608 -10.0607   1.5119   1.6447   1.6447   1.9864   2.2926   2.2926
     2.6110   2.6961   3.0007   3.0007   3.5447   3.5447   3.7688   5.1298
     5.5753   5.5754

          k = 0.3327 0.5762-0.3101 (  1398 PWs)   bands (ev):

   -10.0556 -10.0556   1.4666   1.4666   1.6982   1.6982   2.2379   2.2379
     2.6568   2.6569   3.1661   3.1662   3.4545   3.4545   4.4669   4.4670
     5.9008   5.9008

     highest occupied level (ev):     7.1236

!    total energy              =    -361.62631527 Ry
     estimated scf accuracy    <          3.3E-11 Ry

     The total energy is the sum of the following terms:
     one-electron contribution =    -152.75586476 Ry
     hartree contribution      =     117.68308708 Ry
     xc contribution           =    -109.58541106 Ry
     ewald contribution        =    -216.96812654 Ry

     convergence has been achieved in  19 iterations

     Forces acting on atoms (cartesian axes, Ry/au):

     atom    1 type  1   force =     0.00000000    0.00000000    0.00004125
     atom    2 type  1   force =    -0.00000000   -0.00000000    0.00004125
     atom    3 type  2   force =    -0.00000000   -0.00000000   -0.00004125
     atom    4 type  2   force =    -0.00000000    0.00000000   -0.00004125

     Total force =     0.000082     Total SCF correction =     0.000006


     Computing stress (Cartesian axis) and pressure

          total   stress  (Ry/bohr**3)                   (kbar)     P=        4.69
   0.00002609  -0.00000000  -0.00000000            3.84       -0.00       -0.00
   0.00000000   0.00002609  -0.00000000            0.00        3.84       -0.00
   0.00000000   0.00000000   0.00004349            0.00        0.00        6.40


     Writing output data file ./tmp/zno_prim.save/

     init_run     :      2.01s CPU      2.11s WALL (       2 calls)
     electrons    :    119.30s CPU    124.09s WALL (       8 calls)
     update_pot   :      3.77s CPU      3.77s WALL (       6 calls)
     forces       :      3.83s CPU      3.84s WALL (       8 calls)
     stress       :      8.07s CPU      8.07s WALL (       8 calls)

     Called by init_run:
     wfcinit      :      0.43s CPU      0.45s WALL (       2 calls)
     potinit      :      0.34s CPU      0.35s WALL (       2 calls)
     hinit0       :      1.11s CPU      1.14s WALL (       2 calls)

     Called by electrons:
     c_bands      :    100.57s CPU    104.66s WALL (     167 calls)
     sum_band     :     12.24s CPU     12.84s WALL (     167 calls)
     v_of_rho     :      1.50s CPU      1.54s WALL (     174 calls)
     newd         :      4.81s CPU      4.89s WALL (     174 calls)
     mix_rho      :      0.25s CPU      0.27s WALL (     167 calls)

     Called by c_bands:
     init_us_2    :      0.88s CPU      0.93s WALL (    7392 calls)
     cegterg      :     97.25s CPU    101.26s WALL (    3507 calls)

     Called by *egterg:
     cdiaghg      :     11.60s CPU     11.91s WALL (   17025 calls)
     h_psi        :     45.25s CPU     47.69s WALL (   17214 calls)
     s_psi        :      7.22s CPU      7.62s WALL (   17214 calls)
     g_psi        :      0.41s CPU      0.41s WALL (   13665 calls)

     Called by h_psi:
     h_psi:calbec :      8.66s CPU      9.27s WALL (   17214 calls)
     vloc_psi     :     29.20s CPU     30.53s WALL (   17214 calls)
     add_vuspsi   :      7.21s CPU      7.70s WALL (   17214 calls)

     General routines
     calbec       :     11.86s CPU     12.68s WALL (   21561 calls)
     fft          :      1.24s CPU      1.27s WALL (    2453 calls)
     ffts         :      0.04s CPU      0.04s WALL (     341 calls)
     fftw         :     29.63s CPU     31.09s WALL (  492174 calls)
     interpolate  :      0.10s CPU      0.10s WALL (     174 calls)

     Parallel routines
     fft_scatt_xy :      3.93s CPU      4.13s WALL (  494968 calls)
     fft_scatt_yz :     13.43s CPU     14.12s WALL (  494968 calls)

     PWSCF        :   2m17.35s CPU   2m22.33s WALL


   This run was terminated on:  14:47:56  15Apr2026            

=------------------------------------------------------------------------------=
   JOB DONE.
=------------------------------------------------------------------------------=
