 CRYSTAL
 PRIMVEC
    3.256370198    0.000000000   -0.000000000
   -1.628185099    2.820099316   -0.000000000
   -0.000000000   -0.000000000    5.239812126
 PRIMCOORD
           4           1
Zn       -0.000001628    1.880067151    0.005575692
Zn        1.628186727    0.940032165    2.625481755
O        -0.000001628    1.880067151    1.996032540
O         1.628186727    0.940032165    4.615938603
BEGIN_BLOCK_DATAGRID_3D
3D_PWSCF
BEGIN_DATAGRID_3D_UNKNOWN
          37          37          61
  0.000000  0.000000  0.000000
    3.256370    0.000000   -0.000000
   -1.628185    2.820099   -0.000000
   -0.000000   -0.000000    5.239812
  0.619833E-02  0.635065E-02  0.672652E-02  0.744245E-02  0.856026E-02  0.101218E-01
  0.122958E-01  0.150925E-01  0.185993E-01  0.228275E-01  0.278471E-01  0.336587E-01
  0.401672E-01  0.471152E-01  0.542021E-01  0.608695E-01  0.663954E-01  0.700988E-01
  0.713688E-01  0.701004E-01  0.663981E-01  0.608724E-01  0.542046E-01  0.471173E-01
  0.401691E-01  0.336608E-01  0.278497E-01  0.228307E-01  0.186030E-01  0.150968E-01
  0.123002E-01  0.101257E-01  0.856320E-02  0.744410E-02  0.672712E-02  0.635073E-02
  0.619833E-02  0.635064E-02  0.635073E-02  0.662239E-02  0.712010E-02  0.803853E-02
  0.931323E-02  0.110760E-01  0.134445E-01  0.163913E-01  0.200691E-01  0.245604E-01
  0.297955E-01  0.357096E-01  0.422666E-01  0.490544E-01  0.555583E-01  0.611504E-01
  0.653177E-01  0.675544E-01  0.675553E-01  0.653200E-01  0.611533E-01  0.555611E-01
  0.490568E-01  0.422687E-01  0.357117E-01  0.297979E-01  0.245634E-01  0.200726E-01
  0.163952E-01  0.134486E-01  0.110798E-01  0.931625E-02  0.804035E-02  0.712076E-02
  0.662238E-02  0.635064E-02  0.672651E-02  0.660491E-02  0.672712E-02  0.712077E-02
  0.783814E-02  0.894554E-02  0.104843E-01  0.125262E-01  0.151017E-01  0.183887E-01
  0.224885E-01  0.274955E-01  0.334418E-01  0.401381E-01  0.472807E-01  0.543713E-01
  0.608956E-01  0.661936E-01  0.696444E-01  0.708404E-01  0.696461E-01  0.661964E-01
  0.608988E-01  0.543742E-01  0.472833E-01  0.401405E-01  0.334443E-01  0.274983E-01
  0.224916E-01  0.183921E-01  0.151050E-01  0.125292E-01  0.104865E-01  0.894666E-02
  0.783812E-02  0.712009E-02  0.672651E-02  0.744243E-02  0.718973E-02  0.719041E-02
  0.744411E-02  0.804036E-02  0.894668E-02  0.103033E-01  0.121257E-01  0.144414E-01
  0.174259E-01  0.213265E-01  0.262126E-01  0.322701E-01  0.394036E-01  0.472495E-01
  0.554290E-01  0.633442E-01  0.703006E-01  0.754781E-01  0.782373E-01  0.782383E-01
  0.754806E-01  0.703039E-01  0.633476E-01  0.554321E-01  0.472524E-01  0.394065E-01
  0.322730E-01  0.262155E-01  0.213293E-01  0.174285E-01  0.144433E-01  0.121268E-01
  0.103032E-01  0.894552E-02  0.803851E-02  0.744243E-02  0.856024E-02  0.809894E-02
  0.797434E-02  0.810078E-02  0.856321E-02  0.931627E-02  0.104865E-01  0.121268E-01
  0.142435E-01  0.170567E-01  0.207357E-01  0.255945E-01  0.318008E-01  0.393457E-01
  0.479979E-01  0.574549E-01  0.671423E-01  0.761968E-01  0.836938E-01  0.886649E-01
  0.904127E-01  0.886668E-01  0.836971E-01  0.762006E-01  0.671460E-01  0.574582E-01
  0.480009E-01  0.393485E-01  0.318035E-01  0.255967E-01  0.207373E-01  0.170576E-01
  0.142434E-01  0.121256E-01  0.104842E-01  0.931321E-02  0.856024E-02  0.101218E-01
  0.949902E-02  0.920694E-02  0.920809E-02  0.950208E-02  0.101257E-01  0.110799E-01
  0.125293E-01  0.144434E-01  0.170576E-01  0.206142E-01  0.253367E-01  0.316544E-01
  0.395616E-01  0.489946E-01  0.597484E-01  0.712834E-01  0.827761E-01  0.931662E-01
  0.101162E+00  0.105553E+00  0.105554E+00  0.101165E+00  0.931702E-01  0.827802E-01
  0.712871E-01  0.597516E-01  0.489973E-01  0.395638E-01  0.316560E-01  0.253375E-01
  0.206141E-01  0.170566E-01  0.144413E-01  0.125262E-01  0.110760E-01  0.101218E-01
  0.122958E-01  0.114947E-01  0.110545E-01  0.109312E-01  0.110568E-01  0.114986E-01
  0.123002E-01  0.134486E-01  0.151051E-01  0.174285E-01  0.207374E-01  0.253376E-01
  0.316286E-01  0.397679E-01  0.497539E-01  0.616415E-01  0.749805E-01  0.890972E-01
  0.102961E+00  0.114918E+00  0.123113E+00  0.126068E+00  0.123116E+00  0.114921E+00
  0.102966E+00  0.891010E-01  0.749836E-01  0.616438E-01  0.497555E-01  0.397686E-01
  0.316284E-01  0.253366E-01  0.207356E-01  0.174259E-01  0.151016E-01  0.134444E-01
  0.122958E-01  0.150925E-01  0.141544E-01  0.136039E-01  0.133499E-01  0.133511E-01
  0.136070E-01  0.141586E-01  0.150968E-01  0.163952E-01  0.183921E-01  0.213294E-01
  0.255968E-01  0.316561E-01  0.397687E-01  0.500629E-01  0.627235E-01  0.775411E-01
  0.941180E-01  0.111615E+00  0.128220E+00  0.141359E+00  0.148670E+00  0.148671E+00
  0.141362E+00  0.128223E+00  0.111619E+00  0.941207E-01  0.775429E-01  0.627242E-01
  0.500627E-01  0.397677E-01  0.316543E-01  0.255944E-01  0.213264E-01  0.183886E-01
  0.163912E-01  0.150925E-01  0.185992E-01  0.176619E-01  0.170696E-01  0.167816E-01
  0.166246E-01  0.167836E-01  0.170730E-01  0.176659E-01  0.186031E-01  0.200726E-01
  0.224917E-01  0.262156E-01  0.318036E-01  0.395639E-01  0.497557E-01  0.627244E-01
  0.784716E-01  0.969422E-01  0.117675E+00  0.138891E+00  0.157675E+00  0.170677E+00
  0.175351E+00  0.170678E+00  0.157677E+00  0.138894E+00  0.117677E+00  0.969430E-01
  0.784713E-01  0.627232E-01  0.497537E-01  0.395614E-01  0.318007E-01  0.262125E-01
  0.224884E-01  0.200691E-01  0.185992E-01  0.228274E-01  0.219479E-01  0.214581E-01
  0.212415E-01  0.211164E-01  0.211174E-01  0.212441E-01  0.214616E-01  0.219514E-01
  0.228307E-01  0.245634E-01  0.274984E-01  0.322731E-01  0.393487E-01  0.489975E-01
  0.616441E-01  0.775432E-01  0.969434E-01  0.119862E+00  0.144864E+00  0.169034E+00
  0.188429E+00  0.199326E+00  0.199327E+00  0.188430E+00  0.169035E+00  0.144865E+00
  0.119862E+00  0.969419E-01  0.775409E-01  0.616412E-01  0.489944E-01  0.393455E-01
  0.322700E-01  0.274954E-01  0.245604E-01  0.228274E-01  0.278470E-01  0.270739E-01
  0.269954E-01  0.271042E-01  0.272891E-01  0.273503E-01  0.272908E-01  0.271071E-01
  0.269986E-01  0.270769E-01  0.278497E-01  0.297980E-01  0.334444E-01  0.394066E-01
  0.480011E-01  0.597519E-01  0.749839E-01  0.941211E-01  0.117677E+00  0.144865E+00
  0.173122E+00  0.198416E+00  0.216105E+00  0.222511E+00  0.216106E+00  0.198416E+00
  0.173122E+00  0.144863E+00  0.117675E+00  0.941177E-01  0.749802E-01  0.597482E-01
  0.479977E-01  0.394035E-01  0.334417E-01  0.297954E-01  0.278470E-01  0.336586E-01
  0.332292E-01  0.338417E-01  0.347857E-01  0.357202E-01  0.362786E-01  0.362795E-01
  0.357225E-01  0.347887E-01  0.338446E-01  0.332318E-01  0.336608E-01  0.357117E-01
  0.401407E-01  0.472525E-01  0.574584E-01  0.712874E-01  0.891014E-01  0.111619E+00
  0.138894E+00  0.169036E+00  0.198417E+00  0.222196E+00  0.235574E+00  0.235574E+00
  0.222196E+00  0.198416E+00  0.169034E+00  0.138891E+00  0.111615E+00  0.890969E-01
  0.712832E-01  0.574547E-01  0.472494E-01  0.401380E-01  0.357094E-01  0.336586E-01
  0.401670E-01  0.403564E-01  0.421724E-01  0.448778E-01  0.476160E-01  0.496898E-01
  0.503976E-01  0.496914E-01  0.476187E-01  0.448807E-01  0.421751E-01  0.403586E-01
  0.401691E-01  0.422688E-01  0.472834E-01  0.554323E-01  0.671462E-01  0.827805E-01
  0.102966E+00  0.128224E+00  0.157678E+00  0.188431E+00  0.216106E+00  0.235574E+00
  0.242599E+00  0.235574E+00  0.216105E+00  0.188428E+00  0.157674E+00  0.128219E+00
  0.102961E+00  0.827759E-01  0.671421E-01  0.554288E-01  0.472806E-01  0.422665E-01
  0.401670E-01  0.471151E-01  0.484460E-01  0.524562E-01  0.583383E-01  0.645651E-01
  0.697900E-01  0.727488E-01  0.727497E-01  0.697923E-01  0.645680E-01  0.583411E-01
  0.524586E-01  0.484482E-01  0.471173E-01  0.490569E-01  0.543743E-01  0.633478E-01
  0.762009E-01  0.931705E-01  0.114922E+00  0.141363E+00  0.170679E+00  0.199327E+00
  0.222511E+00  0.235574E+00  0.235574E+00  0.222511E+00  0.199326E+00  0.170677E+00
  0.141359E+00  0.114917E+00  0.931660E-01  0.761967E-01  0.633441E-01  0.543712E-01
  0.490543E-01  0.471151E-01  0.542019E-01  0.573345E-01  0.646961E-01  0.751718E-01
  0.870749E-01  0.981138E-01  0.106090E+00  0.108975E+00  0.106092E+00  0.981166E-01
  0.870779E-01  0.751745E-01  0.646986E-01  0.573370E-01  0.542046E-01  0.555612E-01
  0.608989E-01  0.703041E-01  0.836974E-01  0.101165E+00  0.123116E+00  0.148672E+00
  0.175351E+00  0.199326E+00  0.216105E+00  0.222196E+00  0.216106E+00  0.199327E+00
  0.175351E+00  0.148670E+00  0.123113E+00  0.101162E+00  0.836937E-01  0.703005E-01
  0.608955E-01  0.555582E-01  0.542019E-01  0.608694E-01  0.664122E-01  0.779979E-01
  0.947761E-01  0.115418E+00  0.136867E+00  0.155036E+00  0.165520E+00  0.165521E+00
  0.155038E+00  0.136870E+00  0.115421E+00  0.947790E-01  0.780006E-01  0.664150E-01
  0.608723E-01  0.611534E-01  0.661965E-01  0.754808E-01  0.886671E-01  0.105554E+00
  0.126069E+00  0.148671E+00  0.170677E+00  0.188429E+00  0.198416E+00  0.198417E+00
  0.188430E+00  0.170679E+00  0.148672E+00  0.126068E+00  0.105553E+00  0.886648E-01
  0.754780E-01  0.661935E-01  0.611503E-01  0.608694E-01  0.663954E-01  0.746676E-01
  0.910541E-01  0.116022E+00  0.149230E+00  0.187674E+00  0.225543E+00  0.254354E+00
  0.265182E+00  0.254355E+00  0.225546E+00  0.187677E+00  0.149233E+00  0.116025E+00
  0.910569E-01  0.746704E-01  0.663980E-01  0.653200E-01  0.696462E-01  0.782384E-01
  0.904130E-01  0.105553E+00  0.123114E+00  0.141360E+00  0.157675E+00  0.169034E+00
  0.173122E+00  0.169036E+00  0.157678E+00  0.141362E+00  0.123116E+00  0.105554E+00
  0.904127E-01  0.782373E-01  0.696444E-01  0.653177E-01  0.663954E-01  0.700987E-01
  0.810107E-01  0.102305E+00  0.136682E+00  0.186192E+00  0.251329E+00  0.328106E+00
  0.401481E+00  0.447363E+00  0.447363E+00  0.401483E+00  0.328109E+00  0.251332E+00
  0.186195E+00  0.136685E+00  0.102307E+00  0.810127E-01  0.701003E-01  0.675553E-01
  0.708405E-01  0.782375E-01  0.886651E-01  0.101162E+00  0.114918E+00  0.128220E+00
  0.138891E+00  0.144864E+00  0.144865E+00  0.138894E+00  0.128224E+00  0.114921E+00
  0.101165E+00  0.886669E-01  0.782383E-01  0.708404E-01  0.675544E-01  0.700987E-01
  0.713688E-01  0.844174E-01  0.110032E+00  0.153504E+00  0.221772E+00  0.325419E+00
  0.470483E+00  0.635166E+00  0.768682E+00  0.820124E+00  0.768683E+00  0.635167E+00
  0.470485E+00  0.325421E+00  0.221774E+00  0.153506E+00  0.110034E+00  0.844180E-01
  0.713686E-01  0.675544E-01  0.696445E-01  0.754782E-01  0.836940E-01  0.931664E-01
  0.102961E+00  0.111615E+00  0.117675E+00  0.119862E+00  0.117677E+00  0.111619E+00
  0.102966E+00  0.931703E-01  0.836972E-01  0.754806E-01  0.696462E-01  0.675553E-01
  0.713688E-01  0.701004E-01  0.844183E-01  0.112810E+00  0.163116E+00  0.248635E+00
  0.396850E+00  0.635324E+00  0.943807E+00  0.124002E+01  0.142184E+01  0.142184E+01
  0.124002E+01  0.943805E+00  0.635323E+00  0.396849E+00  0.248635E+00  0.163116E+00
  0.112809E+00  0.844171E-01  0.700986E-01  0.653177E-01  0.661936E-01  0.703007E-01
  0.761970E-01  0.827762E-01  0.890973E-01  0.941181E-01  0.969423E-01  0.969434E-01
  0.941210E-01  0.891013E-01  0.827804E-01  0.762008E-01  0.703040E-01  0.661965E-01
  0.653201E-01  0.701004E-01  0.663982E-01  0.810131E-01  0.110034E+00  0.163117E+00
  0.258789E+00  0.442199E+00  0.773592E+00  0.125457E+01  0.178606E+01  0.220478E+01
  0.236374E+01  0.220478E+01  0.178605E+01  0.125456E+01  0.773586E+00  0.442196E+00
  0.258787E+00  0.163115E+00  0.110032E+00  0.810104E-01  0.663953E-01  0.611503E-01
  0.608956E-01  0.633443E-01  0.671424E-01  0.712835E-01  0.749805E-01  0.775412E-01
  0.784716E-01  0.775431E-01  0.749839E-01  0.712873E-01  0.671462E-01  0.633478E-01
  0.608989E-01  0.611534E-01  0.663982E-01  0.608725E-01  0.746708E-01  0.102308E+00
  0.153507E+00  0.248637E+00  0.442201E+00  0.828257E+00  0.145467E+01  0.224314E+01
  0.298909E+01  0.344464E+01  0.344463E+01  0.298908E+01  0.224312E+01  0.145465E+01
  0.828247E+00  0.442195E+00  0.248633E+00  0.153503E+00  0.102305E+00  0.746674E-01
  0.608693E-01  0.555582E-01  0.543713E-01  0.554290E-01  0.574549E-01  0.597484E-01
  0.616415E-01  0.627235E-01  0.627244E-01  0.616440E-01  0.597518E-01  0.574584E-01
  0.554322E-01  0.543743E-01  0.555612E-01  0.608725E-01  0.542047E-01  0.664153E-01
  0.910575E-01  0.136686E+00  0.221776E+00  0.396854E+00  0.773596E+00  0.145467E+01
  0.242389E+01  0.349328E+01  0.434105E+01  0.466474E+01  0.434104E+01  0.349326E+01
  0.242387E+01  0.145465E+01  0.773584E+00  0.396846E+00  0.221771E+00  0.136681E+00
  0.910537E-01  0.664121E-01  0.542019E-01  0.490544E-01  0.472807E-01  0.472495E-01
  0.479979E-01  0.489946E-01  0.497539E-01  0.500629E-01  0.497557E-01  0.489975E-01
  0.480011E-01  0.472525E-01  0.472834E-01  0.490570E-01  0.542047E-01  0.471174E-01
  0.573372E-01  0.780011E-01  0.116026E+00  0.186196E+00  0.325425E+00  0.635331E+00
  0.125457E+01  0.224314E+01  0.349328E+01  0.469349E+01  0.543933E+01  0.543932E+01
  0.469347E+01  0.349326E+01  0.224312E+01  0.125456E+01  0.635319E+00  0.325417E+00
  0.186191E+00  0.116022E+00  0.779976E-01  0.573344E-01  0.471151E-01  0.422666E-01
  0.401381E-01  0.394036E-01  0.393457E-01  0.395616E-01  0.397679E-01  0.397687E-01
  0.395639E-01  0.393487E-01  0.394066E-01  0.401407E-01  0.422689E-01  0.471174E-01
  0.401692E-01  0.484484E-01  0.646990E-01  0.947798E-01  0.149234E+00  0.251334E+00
  0.470491E+00  0.943817E+00  0.178607E+01  0.298910E+01  0.434106E+01  0.543934E+01
  0.586733E+01  0.543932E+01  0.434104E+01  0.298908E+01  0.178605E+01  0.943801E+00
  0.470480E+00  0.251327E+00  0.149229E+00  0.947758E-01  0.646960E-01  0.484459E-01
  0.401671E-01  0.357095E-01  0.334418E-01  0.322701E-01  0.318008E-01  0.316544E-01
  0.316286E-01  0.316561E-01  0.318036E-01  0.322731E-01  0.334445E-01  0.357118E-01
  0.401692E-01  0.336609E-01  0.403588E-01  0.524589E-01  0.751751E-01  0.115422E+00
  0.187679E+00  0.328112E+00  0.635175E+00  0.124003E+01  0.220480E+01  0.344466E+01
  0.466476E+01  0.543934E+01  0.543933E+01  0.466474E+01  0.344463E+01  0.220478E+01
  0.124001E+01  0.635163E+00  0.328105E+00  0.187673E+00  0.115418E+00  0.751715E-01
  0.524561E-01  0.403564E-01  0.336586E-01  0.297954E-01  0.274954E-01  0.262126E-01
  0.255945E-01  0.253367E-01  0.253376E-01  0.255968E-01  0.262156E-01  0.274984E-01
  0.297980E-01  0.336609E-01  0.278498E-01  0.332319E-01  0.421753E-01  0.583415E-01
  0.870786E-01  0.136871E+00  0.225548E+00  0.401488E+00  0.768692E+00  0.142186E+01
  0.236376E+01  0.344465E+01  0.434106E+01  0.469349E+01  0.434105E+01  0.344464E+01
  0.236374E+01  0.142184E+01  0.768680E+00  0.401480E+00  0.225542E+00  0.136867E+00
  0.870747E-01  0.583381E-01  0.421724E-01  0.332292E-01  0.278471E-01  0.245604E-01
  0.224884E-01  0.213265E-01  0.207357E-01  0.206142E-01  0.207374E-01  0.213294E-01
  0.224917E-01  0.245634E-01  0.278498E-01  0.228307E-01  0.270770E-01  0.338448E-01
  0.448810E-01  0.645685E-01  0.981173E-01  0.155039E+00  0.254358E+00  0.447368E+00
  0.820133E+00  0.142185E+01  0.220480E+01  0.298910E+01  0.349328E+01  0.349328E+01
  0.298909E+01  0.220478E+01  0.142184E+01  0.820124E+00  0.447362E+00  0.254353E+00
  0.155035E+00  0.981137E-01  0.645650E-01  0.448777E-01  0.338417E-01  0.270739E-01
  0.228274E-01  0.200691E-01  0.183887E-01  0.174259E-01  0.170567E-01  0.170576E-01
  0.174285E-01  0.183921E-01  0.200727E-01  0.228307E-01  0.186031E-01  0.219515E-01
  0.269988E-01  0.347888E-01  0.476190E-01  0.697928E-01  0.106093E+00  0.165523E+00
  0.265184E+00  0.447367E+00  0.768689E+00  0.124003E+01  0.178607E+01  0.224314E+01
  0.242389E+01  0.224314E+01  0.178606E+01  0.124002E+01  0.768684E+00  0.447364E+00
  0.265182E+00  0.165520E+00  0.106090E+00  0.697900E-01  0.476160E-01  0.347857E-01
  0.269954E-01  0.219479E-01  0.185992E-01  0.163913E-01  0.151017E-01  0.144414E-01
  0.142435E-01  0.144434E-01  0.151051E-01  0.163953E-01  0.186031E-01  0.150968E-01
  0.176659E-01  0.214616E-01  0.271073E-01  0.357227E-01  0.496917E-01  0.727502E-01
  0.108975E+00  0.165522E+00  0.254356E+00  0.401485E+00  0.635171E+00  0.943813E+00
  0.125457E+01  0.145467E+01  0.145467E+01  0.125457E+01  0.943811E+00  0.635170E+00
  0.401484E+00  0.254356E+00  0.165521E+00  0.108975E+00  0.727488E-01  0.496897E-01
  0.357202E-01  0.271042E-01  0.214581E-01  0.176619E-01  0.150925E-01  0.134445E-01
  0.125262E-01  0.121257E-01  0.121268E-01  0.125293E-01  0.134486E-01  0.150968E-01
  0.123003E-01  0.141586E-01  0.170730E-01  0.212441E-01  0.272909E-01  0.362797E-01
  0.503979E-01  0.727493E-01  0.106091E+00  0.155037E+00  0.225544E+00  0.328108E+00
  0.470486E+00  0.635327E+00  0.773593E+00  0.828257E+00  0.773594E+00  0.635328E+00
  0.470488E+00  0.328110E+00  0.225546E+00  0.155038E+00  0.106092E+00  0.727497E-01
  0.503976E-01  0.362786E-01  0.272890E-01  0.212415E-01  0.170696E-01  0.141544E-01
  0.122958E-01  0.110760E-01  0.104843E-01  0.103033E-01  0.104865E-01  0.110799E-01
  0.123003E-01  0.101258E-01  0.114986E-01  0.136070E-01  0.167837E-01  0.211175E-01
  0.273504E-01  0.362788E-01  0.496901E-01  0.697905E-01  0.981144E-01  0.136868E+00
  0.187675E+00  0.251330E+00  0.325420E+00  0.396851E+00  0.442200E+00  0.442200E+00
  0.396853E+00  0.325423E+00  0.251333E+00  0.187678E+00  0.136870E+00  0.981167E-01
  0.697924E-01  0.496914E-01  0.362795E-01  0.273503E-01  0.211165E-01  0.167816E-01
  0.136039E-01  0.114947E-01  0.101218E-01  0.931322E-02  0.894554E-02  0.894668E-02
  0.931628E-02  0.101258E-01  0.856322E-02  0.950210E-02  0.110568E-01  0.133511E-01
  0.166247E-01  0.211165E-01  0.272892E-01  0.357204E-01  0.476163E-01  0.645654E-01
  0.870753E-01  0.115418E+00  0.149230E+00  0.186192E+00  0.221773E+00  0.248635E+00
  0.258789E+00  0.248637E+00  0.221775E+00  0.186196E+00  0.149234E+00  0.115421E+00
  0.870781E-01  0.645681E-01  0.476188E-01  0.357225E-01  0.272908E-01  0.211174E-01
  0.166246E-01  0.133499E-01  0.110545E-01  0.949903E-02  0.856025E-02  0.803852E-02
  0.783814E-02  0.804037E-02  0.856322E-02  0.744412E-02  0.810079E-02  0.920811E-02
  0.109313E-01  0.133500E-01  0.167817E-01  0.212416E-01  0.271044E-01  0.347858E-01
  0.448780E-01  0.583385E-01  0.751721E-01  0.947765E-01  0.116022E+00  0.136682E+00
  0.153505E+00  0.163116E+00  0.163117E+00  0.153507E+00  0.136686E+00  0.116026E+00
  0.947794E-01  0.751748E-01  0.583412E-01  0.448808E-01  0.347887E-01  0.271071E-01
  0.212441E-01  0.167836E-01  0.133511E-01  0.109312E-01  0.920694E-02  0.809894E-02
  0.744244E-02  0.712010E-02  0.712077E-02  0.744412E-02  0.672713E-02  0.719042E-02
  0.797436E-02  0.920697E-02  0.110545E-01  0.136040E-01  0.170696E-01  0.214582E-01
  0.269955E-01  0.338418E-01  0.421726E-01  0.524564E-01  0.646964E-01  0.779981E-01
  0.910543E-01  0.102305E+00  0.110033E+00  0.112810E+00  0.110034E+00  0.102308E+00
  0.910573E-01  0.780009E-01  0.646988E-01  0.524587E-01  0.421751E-01  0.338447E-01
  0.269986E-01  0.214615E-01  0.170730E-01  0.136070E-01  0.110568E-01  0.920808E-02
  0.797434E-02  0.718974E-02  0.672652E-02  0.662239E-02  0.672713E-02  0.635073E-02
  0.660492E-02  0.718975E-02  0.809896E-02  0.949905E-02  0.114947E-01  0.141545E-01
  0.176619E-01  0.219480E-01  0.270740E-01  0.332293E-01  0.403565E-01  0.484461E-01
  0.573347E-01  0.664124E-01  0.746678E-01  0.810108E-01  0.844174E-01  0.844183E-01
  0.810130E-01  0.746706E-01  0.664152E-01  0.573371E-01  0.484482E-01  0.403586E-01
  0.332318E-01  0.270769E-01  0.219514E-01  0.176658E-01  0.141586E-01  0.114986E-01
  0.950207E-02  0.810077E-02  0.719041E-02  0.660491E-02  0.635065E-02  0.635073E-02
  0.619833E-02  0.635065E-02  0.672652E-02  0.744245E-02  0.856026E-02  0.101218E-01
  0.122958E-01  0.150925E-01  0.185993E-01  0.228275E-01  0.278471E-01  0.336587E-01
  0.401672E-01  0.471152E-01  0.542021E-01  0.608695E-01  0.663954E-01  0.700988E-01
  0.713688E-01  0.701004E-01  0.663981E-01  0.608724E-01  0.542046E-01  0.471173E-01
  0.401691E-01  0.336608E-01  0.278497E-01  0.228307E-01  0.186030E-01  0.150968E-01
  0.123002E-01  0.101257E-01  0.856320E-02  0.744410E-02  0.672712E-02  0.635073E-02
  0.619833E-02  0.601114E-02  0.615235E-02  0.652684E-02  0.718239E-02  0.819041E-02
  0.965892E-02  0.116599E-01  0.142385E-01  0.175360E-01  0.215038E-01  0.261023E-01
  0.313764E-01  0.372575E-01  0.434954E-01  0.497946E-01  0.557125E-01  0.606236E-01
  0.639006E-01  0.650489E-01  0.639021E-01  0.606261E-01  0.557152E-01  0.497969E-01
  0.434974E-01  0.372593E-01  0.313783E-01  0.261046E-01  0.215067E-01  0.175394E-01
  0.142424E-01  0.116639E-01  0.966259E-02  0.819317E-02  0.718396E-02  0.652740E-02
  0.615242E-02  0.601114E-02  0.615234E-02  0.615242E-02  0.640240E-02  0.685780E-02
  0.767697E-02  0.884920E-02  0.104453E-01  0.126012E-01  0.153014E-01  0.185974E-01
  0.225935E-01  0.272084E-01  0.323227E-01  0.378906E-01  0.436130E-01  0.490967E-01
  0.538350E-01  0.573389E-01  0.592134E-01  0.592143E-01  0.573411E-01  0.538377E-01
  0.490993E-01  0.436152E-01  0.378925E-01  0.323247E-01  0.272106E-01  0.225962E-01
  0.186006E-01  0.153050E-01  0.126049E-01  0.104488E-01  0.885202E-02  0.767868E-02
  0.685842E-02  0.640240E-02  0.615234E-02  0.652683E-02  0.641214E-02  0.652741E-02
  0.685843E-02  0.749250E-02  0.850035E-02  0.986246E-02  0.116907E-01  0.139971E-01
  0.168465E-01  0.203445E-01  0.245766E-01  0.295095E-01  0.349858E-01  0.407932E-01
  0.465419E-01  0.517967E-01  0.560252E-01  0.587738E-01  0.597316E-01  0.587754E-01
  0.560279E-01  0.517996E-01  0.465445E-01  0.407955E-01  0.349880E-01  0.295119E-01
  0.245793E-01  0.203474E-01  0.168496E-01  0.140002E-01  0.116935E-01  0.986454E-02
  0.850140E-02  0.749248E-02  0.685778E-02  0.652683E-02  0.718238E-02  0.697959E-02
  0.698023E-02  0.718396E-02  0.767869E-02  0.850142E-02  0.966250E-02  0.112593E-01
  0.132944E-01  0.158205E-01  0.190989E-01  0.230731E-01  0.278623E-01  0.335237E-01
  0.397689E-01  0.461901E-01  0.522967E-01  0.575809E-01  0.615079E-01  0.636148E-01
  0.636157E-01  0.615102E-01  0.575839E-01  0.522999E-01  0.461930E-01  0.397715E-01
  0.335263E-01  0.278649E-01  0.230758E-01  0.191016E-01  0.158229E-01  0.132962E-01
  0.112603E-01  0.966247E-02  0.850033E-02  0.767695E-02  0.718238E-02  0.819039E-02
  0.783769E-02  0.775225E-02  0.783943E-02  0.819318E-02  0.885203E-02  0.986456E-02
  0.112603E-01  0.130812E-01  0.154014E-01  0.184122E-01  0.222812E-01  0.270812E-01
  0.329343E-01  0.396205E-01  0.467960E-01  0.540424E-01  0.607433E-01  0.662328E-01
  0.698498E-01  0.711073E-01  0.698516E-01  0.662359E-01  0.607469E-01  0.540458E-01
  0.467991E-01  0.396234E-01  0.329369E-01  0.270837E-01  0.222833E-01  0.184137E-01
  0.154023E-01  0.130812E-01  0.112592E-01  0.986243E-02  0.884917E-02  0.819039E-02
  0.965889E-02  0.915707E-02  0.894030E-02  0.894137E-02  0.915993E-02  0.966260E-02
  0.104488E-01  0.116935E-01  0.132963E-01  0.154023E-01  0.182571E-01  0.219318E-01
  0.267217E-01  0.327785E-01  0.399207E-01  0.478742E-01  0.563073E-01  0.645997E-01
  0.719136E-01  0.774063E-01  0.803625E-01  0.803636E-01  0.774091E-01  0.719173E-01
  0.646035E-01  0.563108E-01  0.478772E-01  0.399233E-01  0.327805E-01  0.267231E-01
  0.219326E-01  0.182571E-01  0.154014E-01  0.132944E-01  0.116906E-01  0.104452E-01
  0.965889E-02  0.116599E-01  0.110548E-01  0.106905E-01  0.106056E-01  0.106926E-01
  0.110584E-01  0.116640E-01  0.126050E-01  0.140002E-01  0.158229E-01  0.184138E-01
  0.219327E-01  0.266351E-01  0.327692E-01  0.402187E-01  0.488887E-01  0.584975E-01
  0.683988E-01  0.777425E-01  0.855362E-01  0.907630E-01  0.926254E-01  0.907650E-01
  0.855396E-01  0.777464E-01  0.684024E-01  0.585005E-01  0.488910E-01  0.402202E-01
  0.327699E-01  0.266350E-01  0.219318E-01  0.184121E-01  0.158205E-01  0.139970E-01
  0.126011E-01  0.116599E-01  0.142384E-01  0.135503E-01  0.131433E-01  0.129709E-01
  0.129720E-01  0.131462E-01  0.135541E-01  0.142424E-01  0.153050E-01  0.168496E-01
  0.191016E-01  0.222834E-01  0.267232E-01  0.327700E-01  0.403655E-01  0.495001E-01
  0.600247E-01  0.713890E-01  0.827717E-01  0.931942E-01  0.101284E+00  0.105731E+00
  0.105732E+00  0.101287E+00  0.931978E-01  0.827751E-01  0.713917E-01  0.600263E-01
  0.495008E-01  0.403653E-01  0.327690E-01  0.267216E-01  0.222811E-01  0.190989E-01
  0.168464E-01  0.153014E-01  0.142384E-01  0.175359E-01  0.168583E-01  0.164967E-01
  0.163307E-01  0.162559E-01  0.163326E-01  0.164999E-01  0.168620E-01  0.175395E-01
  0.186006E-01  0.203474E-01  0.230759E-01  0.270837E-01  0.327806E-01  0.402203E-01
  0.495010E-01  0.605675E-01  0.730314E-01  0.862779E-01  0.992999E-01  0.110598E+00
  0.118320E+00  0.121084E+00  0.118322E+00  0.110601E+00  0.993025E-01  0.862797E-01
  0.730322E-01  0.605672E-01  0.494999E-01  0.402186E-01  0.327784E-01  0.270811E-01
  0.230730E-01  0.203444E-01  0.185973E-01  0.175359E-01  0.215037E-01  0.209641E-01
  0.207439E-01  0.207091E-01  0.207030E-01  0.207039E-01  0.207115E-01  0.207471E-01
  0.209674E-01  0.215067E-01  0.225962E-01  0.245793E-01  0.278650E-01  0.329370E-01
  0.399234E-01  0.488911E-01  0.600265E-01  0.730324E-01  0.875294E-01  0.102708E+00
  0.117046E+00  0.128381E+00  0.134708E+00  0.134709E+00  0.128383E+00  0.117048E+00
  0.102709E+00  0.875291E-01  0.730311E-01  0.600245E-01  0.488886E-01  0.399206E-01
  0.329341E-01  0.278622E-01  0.245765E-01  0.225934E-01  0.215037E-01  0.261022E-01
  0.258431E-01  0.260741E-01  0.264442E-01  0.267768E-01  0.269110E-01  0.267785E-01
  0.264469E-01  0.260771E-01  0.258459E-01  0.261047E-01  0.272107E-01  0.295119E-01
  0.335264E-01  0.396235E-01  0.478774E-01  0.585007E-01  0.713919E-01  0.862800E-01
  0.102709E+00  0.119354E+00  0.134021E+00  0.144154E+00  0.147800E+00  0.144155E+00
  0.134021E+00  0.119354E+00  0.102708E+00  0.862776E-01  0.713888E-01  0.584974E-01
  0.478741E-01  0.396204E-01  0.335236E-01  0.295094E-01  0.272083E-01  0.261022E-01
  0.313763E-01  0.316617E-01  0.326929E-01  0.339422E-01  0.350691E-01  0.357086E-01
  0.357094E-01  0.350713E-01  0.339449E-01  0.326955E-01  0.316640E-01  0.313783E-01
  0.323247E-01  0.349881E-01  0.397716E-01  0.467993E-01  0.563110E-01  0.684027E-01
  0.827754E-01  0.993028E-01  0.117048E+00  0.134022E+00  0.147595E+00  0.155132E+00
  0.155132E+00  0.147595E+00  0.134021E+00  0.117046E+00  0.992997E-01  0.827715E-01
  0.683986E-01  0.563072E-01  0.467959E-01  0.397688E-01  0.349857E-01  0.323226E-01
  0.313763E-01  0.372574E-01  0.383673E-01  0.407567E-01  0.437702E-01  0.467327E-01
  0.488916E-01  0.496256E-01  0.488931E-01  0.467352E-01  0.437729E-01  0.407591E-01
  0.383694E-01  0.372593E-01  0.378925E-01  0.407956E-01  0.461931E-01  0.540459E-01
  0.646037E-01  0.777466E-01  0.931981E-01  0.110601E+00  0.128383E+00  0.144155E+00
  0.155132E+00  0.159055E+00  0.155132E+00  0.144154E+00  0.128381E+00  0.110598E+00
  0.931941E-01  0.777423E-01  0.645996E-01  0.540422E-01  0.461900E-01  0.407931E-01
  0.378905E-01  0.372574E-01  0.434953E-01  0.459394E-01  0.506425E-01  0.568678E-01
  0.633030E-01  0.686486E-01  0.716517E-01  0.716525E-01  0.686507E-01  0.633057E-01
  0.568704E-01  0.506448E-01  0.459414E-01  0.434973E-01  0.436153E-01  0.465446E-01
  0.523000E-01  0.607470E-01  0.719175E-01  0.855399E-01  0.101287E+00  0.118322E+00
  0.134709E+00  0.147800E+00  0.155132E+00  0.155132E+00  0.147800E+00  0.134708E+00
  0.118320E+00  0.101284E+00  0.855360E-01  0.719135E-01  0.607432E-01  0.522966E-01
  0.465418E-01  0.436129E-01  0.434953E-01  0.497945E-01  0.542753E-01  0.624236E-01
  0.732985E-01  0.853194E-01  0.964036E-01  0.104332E+00  0.107205E+00  0.104334E+00
  0.964061E-01  0.853221E-01  0.733011E-01  0.624259E-01  0.542775E-01  0.497969E-01
  0.490993E-01  0.517997E-01  0.575841E-01  0.662360E-01  0.774093E-01  0.907653E-01
  0.105733E+00  0.121085E+00  0.134708E+00  0.144154E+00  0.147595E+00  0.144155E+00
  0.134709E+00  0.121084E+00  0.105731E+00  0.907629E-01  0.774063E-01  0.662327E-01
  0.575808E-01  0.517966E-01  0.490966E-01  0.497945E-01  0.557124E-01  0.627712E-01
  0.752228E-01  0.923987E-01  0.112944E+00  0.134125E+00  0.151955E+00  0.162196E+00
  0.162197E+00  0.151957E+00  0.134127E+00  0.112947E+00  0.924013E-01  0.752253E-01
  0.627738E-01  0.557151E-01  0.538377E-01  0.560279E-01  0.615104E-01  0.698517E-01
  0.803638E-01  0.926257E-01  0.105732E+00  0.118321E+00  0.128381E+00  0.134021E+00
  0.134022E+00  0.128383E+00  0.118322E+00  0.105732E+00  0.926254E-01  0.803625E-01
  0.698497E-01  0.615079E-01  0.560252E-01  0.538349E-01  0.557124E-01  0.606235E-01
  0.705250E-01  0.878016E-01  0.113011E+00  0.145789E+00  0.183233E+00  0.219833E+00
  0.247478E+00  0.257857E+00  0.247480E+00  0.219835E+00  0.183236E+00  0.145792E+00
  0.113013E+00  0.878042E-01  0.705276E-01  0.606259E-01  0.573410E-01  0.587755E-01
  0.636158E-01  0.711075E-01  0.803627E-01  0.907632E-01  0.101284E+00  0.110598E+00
  0.117047E+00  0.119354E+00  0.117048E+00  0.110601E+00  0.101287E+00  0.907651E-01
  0.803636E-01  0.711073E-01  0.636148E-01  0.587738E-01  0.573389E-01  0.606235E-01
  0.639006E-01  0.764529E-01  0.986523E-01  0.133014E+00  0.181470E+00  0.244110E+00
  0.317018E+00  0.386202E+00  0.429375E+00  0.429376E+00  0.386204E+00  0.317021E+00
  0.244112E+00  0.181473E+00  0.133016E+00  0.986545E-01  0.764548E-01  0.639020E-01
  0.592142E-01  0.597316E-01  0.636149E-01  0.698499E-01  0.774065E-01  0.855363E-01
  0.931944E-01  0.993000E-01  0.102708E+00  0.102709E+00  0.993027E-01  0.931979E-01
  0.855398E-01  0.774092E-01  0.698516E-01  0.636157E-01  0.597316E-01  0.592134E-01
  0.639006E-01  0.650489E-01  0.796590E-01  0.106053E+00  0.149241E+00  0.215513E+00
  0.314015E+00  0.450178E+00  0.604204E+00  0.729160E+00  0.777378E+00  0.729160E+00
  0.604205E+00  0.450179E+00  0.314017E+00  0.215515E+00  0.149243E+00  0.106054E+00
  0.796595E-01  0.650488E-01  0.592134E-01  0.587739E-01  0.615080E-01  0.662329E-01
  0.719137E-01  0.777426E-01  0.827718E-01  0.862779E-01  0.875294E-01  0.862800E-01
  0.827753E-01  0.777465E-01  0.719174E-01  0.662359E-01  0.615103E-01  0.587755E-01