
     Program PWSCF v.6.7MaX starts on 16Apr2026 at 19:46:50 

     This program is part of the open-source Quantum ESPRESSO suite
     for quantum simulation of materials; please cite
         "P. Giannozzi et al., J. Phys.:Condens. Matter 21 395502 (2009);
         "P. Giannozzi et al., J. Phys.:Condens. Matter 29 465901 (2017);
          URL http://www.quantum-espresso.org", 
     in publications or presentations arising from this work. More details at
     http://www.quantum-espresso.org/quote

     Parallel version (MPI), running on     4 processors

     MPI processes distributed on     1 nodes
     R & G space division:  proc/nbgrp/npool/nimage =       4
     Reading input from zno_doped.in

     Current dimensions of program PWSCF are:
     Max number of different atomic species (ntypx) = 10
     Max number of k-points (npk) =  40000
     Max angular momentum in pseudopotentials (lmaxx) =  3
     file Zn.UPF: wavefunction(s)  3D renormalized
     file Ca.UPF: wavefunction(s)  3S renormalized

     Subspace diagonalization in iterative solution of the eigenvalue problem:
     one sub-group per band group will be used
     scalapack distributed-memory algorithm (size of sub-group:  2*  2 procs)

     Message from routine setup:
     using ibrav=0 with symmetry is DISCOURAGED, use correct ibrav instead

     Parallelization info
     --------------------
     sticks:   dense  smooth     PW     G-vecs:    dense   smooth      PW
     Min         832     415    115                62736    22197    3235
     Max         833     416    116                62741    22202    3238
     Sum        3331    1663    463               250955    88801   12947



     bravais-lattice index     =            0
     lattice parameter (alat)  =      12.3073  a.u.
     unit-cell volume          =    2597.7688 (a.u.)^3
     number of atoms/cell      =           32
     number of atomic types    =            3
     number of electrons       =       286.00
     number of Kohn-Sham states=          172
     kinetic-energy cutoff     =      40.0000  Ry
     charge density cutoff     =     320.0000  Ry
     scf convergence threshold =      1.0E-08
     mixing beta               =       0.7000
     number of iterations used =            8  plain     mixing
     Exchange-correlation= SLA  PW   PBX  PBC
                           (   1   4   3   4   0   0   0)

     celldm(1)=  12.307296  celldm(2)=   0.000000  celldm(3)=   0.000000
     celldm(4)=   0.000000  celldm(5)=   0.000000  celldm(6)=   0.000000

     crystal axes: (cart. coord. in units of alat)
               a(1) = (   1.000000   0.000000   0.000000 )  
               a(2) = (  -0.500000   0.866025   0.000000 )  
               a(3) = (   0.000000   0.000000   1.609096 )  

     reciprocal axes: (cart. coord. in units 2 pi/alat)
               b(1) = (  1.000000  0.577350 -0.000000 )  
               b(2) = (  0.000000  1.154701  0.000000 )  
               b(3) = (  0.000000 -0.000000  0.621467 )  


     PseudoPot. # 1 for Zn read from file:
     ../pseudo/Zn.UPF
     MD5 check sum: c4fdec089fdc15c46897c8a96be99b2c
     Pseudo is Ultrasoft + core correction, Zval = 12.0
     Generated using &quot;atomic&quot; code by A. Dal Corso  v.6.2.2
     Using radial grid of 1201 points,  6 beta functions with: 
                l(1) =   0
                l(2) =   0
                l(3) =   1
                l(4) =   1
                l(5) =   2
                l(6) =   2
     Q(r) pseudized with 0 coefficients 


     PseudoPot. # 2 for O  read from file:
     ../pseudo/O.UPF
     MD5 check sum: b15f85fac327ccb5e22ba8b88818af9f
     Pseudo is Ultrasoft + core correction, Zval =  6.0
     Generated using &quot;atomic&quot; code by A. Dal Corso  v.6.3MaX
     Using radial grid of 1095 points,  4 beta functions with: 
                l(1) =   0
                l(2) =   0
                l(3) =   1
                l(4) =   1
     Q(r) pseudized with 0 coefficients 


     PseudoPot. # 3 for Ca read from file:
     ../pseudo/Ca.UPF
     MD5 check sum: daf87732ec21f03f7fc803adca829596
     Pseudo is Projector augmented-wave + core cor, Zval = 10.0
     Generated using &quot;atomic&quot; code by A. Dal Corso  v.6.4.1
     Shape of augmentation charge: PSQ
     Using radial grid of 1169 points,  6 beta functions with: 
                l(1) =   0
                l(2) =   0
                l(3) =   1
                l(4) =   1
                l(5) =   2
                l(6) =   2
     Q(r) pseudized with 0 coefficients 


     atomic species   valence    mass     pseudopotential
        Zn            12.00    65.38000     Zn( 1.00)
        O              6.00    16.00000     O ( 1.00)
        Ca            10.00    40.08000     Ca( 1.00)

      6 Sym. Ops. (no inversion) found ( 4 have fractional translation)


                                    s                        frac. trans.

      isym =  1     identity                                     

 cryst.   s( 1) = (     1          0          0      )
                  (     0          1          0      )
                  (     0          0          1      )

 cart.    s( 1) = (  1.0000000  0.0000000  0.0000000 )
                  (  0.0000000  1.0000000  0.0000000 )
                  (  0.0000000  0.0000000  1.0000000 )


      isym =  2     120 deg rotation - cryst. axis [0,0,1]       

 cryst.   s( 2) = (     0          1          0      )    f =(  0.5000000 )
                  (    -1         -1          0      )       (  0.4999995 )
                  (     0          0          1      )       (  0.0000000 )

 cart.    s( 2) = ( -0.5000000 -0.8660254  0.0000000 )    f =(  0.2500003 )
                  (  0.8660254 -0.5000000  0.0000000 )       (  0.4330123 )
                  (  0.0000000  0.0000000  1.0000000 )       (  0.0000000 )


      isym =  3     120 deg rotation - cryst. axis [0,0,-1]      

 cryst.   s( 3) = (    -1         -1          0      )    f =(  0.0000005 )
                  (     1          0          0      )       (  0.5000000 )
                  (     0          0          1      )       (  0.0000000 )

 cart.    s( 3) = ( -0.5000000  0.8660254  0.0000000 )    f =( -0.2499995 )
                  ( -0.8660254 -0.5000000  0.0000000 )       (  0.4330127 )
                  (  0.0000000  0.0000000  1.0000000 )       (  0.0000000 )


      isym =  4     inv. 180 deg rotation - cart. axis [1,0,0]   

 cryst.   s( 4) = (    -1          0          0      )
                  (     1          1          0      )
                  (     0          0          1      )

 cart.    s( 4) = ( -1.0000000  0.0000000  0.0000000 )
                  (  0.0000000  1.0000000  0.0000000 )
                  (  0.0000000  0.0000000  1.0000000 )


      isym =  5     inv. 180 deg rotation - cryst. axis [0,1,0]  

 cryst.   s( 5) = (     1          1          0      )    f =(  0.0000000 )
                  (     0         -1          0      )       (  0.4999995 )
                  (     0          0          1      )       (  0.0000000 )

 cart.    s( 5) = (  0.5000000  0.8660254  0.0000000 )    f =( -0.2499997 )
                  (  0.8660254 -0.5000000  0.0000000 )       (  0.4330123 )
                  (  0.0000000  0.0000000  1.0000000 )       (  0.0000000 )


      isym =  6     inv. 180 deg rotation - cryst. axis [1,1,0]  

 cryst.   s( 6) = (     0         -1          0      )    f =(  0.5000000 )
                  (    -1          0          0      )       (  0.5000000 )
                  (     0          0          1      )       (  0.0000000 )

 cart.    s( 6) = (  0.5000000 -0.8660254  0.0000000 )    f =(  0.2500000 )
                  ( -0.8660254 -0.5000000  0.0000000 )       (  0.4330127 )
                  (  0.0000000  0.0000000  1.0000000 )       (  0.0000000 )


   Cartesian axes

     site n.     atom                  positions (alat units)
         1           Ca  tau(   1) = (  -0.0000003   0.2886753   0.0008561  )
         2           Zn  tau(   2) = (  -0.0000003   0.2886753   0.8054040  )
         3           Zn  tau(   3) = (  -0.2500002   0.7216880   0.0008561  )
         4           Zn  tau(   4) = (  -0.2500002   0.7216880   0.8054040  )
         5           Zn  tau(   5) = (   0.4999998   0.2886753   0.0008561  )
         6           Zn  tau(   6) = (   0.4999998   0.2886753   0.8054040  )
         7           Zn  tau(   7) = (   0.2499998   0.7216880   0.0008561  )
         8           Zn  tau(   8) = (   0.2499998   0.7216880   0.8054040  )
         9           Zn  tau(   9) = (   0.2500003   0.1443374   0.4031301  )
        10           Zn  tau(  10) = (   0.2500003   0.1443374   1.2076780  )
        11           Zn  tau(  11) = (   0.0000002   0.5773501   0.4031301  )
        12           Zn  tau(  12) = (   0.0000002   0.5773501   1.2076780  )
        13           Zn  tau(  13) = (   0.7500002   0.1443374   0.4031301  )
        14           Zn  tau(  14) = (   0.7500002   0.1443374   1.2076780  )
        15           Zn  tau(  15) = (   0.5000002   0.5773501   0.4031301  )
        16           Zn  tau(  16) = (   0.5000002   0.5773501   1.2076780  )
        17           O   tau(  17) = (  -0.0000003   0.2886753   0.3064812  )
        18           O   tau(  18) = (  -0.0000003   0.2886753   1.1110291  )
        19           O   tau(  19) = (  -0.2500002   0.7216880   0.3064812  )
        20           O   tau(  20) = (  -0.2500002   0.7216880   1.1110291  )
        21           O   tau(  21) = (   0.4999998   0.2886753   0.3064812  )
        22           O   tau(  22) = (   0.4999998   0.2886753   1.1110291  )
        23           O   tau(  23) = (   0.2499998   0.7216880   0.3064812  )
        24           O   tau(  24) = (   0.2499998   0.7216880   1.1110291  )
        25           O   tau(  25) = (   0.2500003   0.1443374   0.7087551  )
        26           O   tau(  26) = (   0.2500003   0.1443374   1.5133031  )
        27           O   tau(  27) = (   0.0000002   0.5773501   0.7087551  )
        28           O   tau(  28) = (   0.0000002   0.5773501   1.5133031  )
        29           O   tau(  29) = (   0.7500002   0.1443374   0.7087551  )
        30           O   tau(  30) = (   0.7500002   0.1443374   1.5133031  )
        31           O   tau(  31) = (   0.5000002   0.5773501   0.7087551  )
        32           O   tau(  32) = (   0.5000002   0.5773501   1.5133031  )

   Crystallographic axes

     site n.     atom                  positions (cryst. coord.)
         1           Ca  tau(   1) = (  0.1666665  0.3333335  0.0005320  )
         2           Zn  tau(   2) = (  0.1666665  0.3333335  0.5005321  )
         3           Zn  tau(   3) = (  0.1666665  0.8333335  0.0005320  )
         4           Zn  tau(   4) = (  0.1666665  0.8333335  0.5005321  )
         5           Zn  tau(   5) = (  0.6666665  0.3333335  0.0005320  )
         6           Zn  tau(   6) = (  0.6666665  0.3333335  0.5005321  )
         7           Zn  tau(   7) = (  0.6666665  0.8333335  0.0005320  )
         8           Zn  tau(   8) = (  0.6666665  0.8333335  0.5005321  )
         9           Zn  tau(   9) = (  0.3333335  0.1666665  0.2505321  )
        10           Zn  tau(  10) = (  0.3333335  0.1666665  0.7505321  )
        11           Zn  tau(  11) = (  0.3333335  0.6666665  0.2505321  )
        12           Zn  tau(  12) = (  0.3333335  0.6666665  0.7505321  )
        13           Zn  tau(  13) = (  0.8333335  0.1666665  0.2505321  )
        14           Zn  tau(  14) = (  0.8333335  0.1666665  0.7505321  )
        15           Zn  tau(  15) = (  0.8333335  0.6666665  0.2505321  )
        16           Zn  tau(  16) = (  0.8333335  0.6666665  0.7505321  )
        17           O   tau(  17) = (  0.1666665  0.3333335  0.1904679  )
        18           O   tau(  18) = (  0.1666665  0.3333335  0.6904680  )
        19           O   tau(  19) = (  0.1666665  0.8333335  0.1904679  )
        20           O   tau(  20) = (  0.1666665  0.8333335  0.6904680  )
        21           O   tau(  21) = (  0.6666665  0.3333335  0.1904679  )
        22           O   tau(  22) = (  0.6666665  0.3333335  0.6904680  )
        23           O   tau(  23) = (  0.6666665  0.8333335  0.1904679  )
        24           O   tau(  24) = (  0.6666665  0.8333335  0.6904680  )
        25           O   tau(  25) = (  0.3333335  0.1666665  0.4404679  )
        26           O   tau(  26) = (  0.3333335  0.1666665  0.9404680  )
        27           O   tau(  27) = (  0.3333335  0.6666665  0.4404679  )
        28           O   tau(  28) = (  0.3333335  0.6666665  0.9404680  )
        29           O   tau(  29) = (  0.8333335  0.1666665  0.4404679  )
        30           O   tau(  30) = (  0.8333335  0.1666665  0.9404680  )
        31           O   tau(  31) = (  0.8333335  0.6666665  0.4404679  )
        32           O   tau(  32) = (  0.8333335  0.6666665  0.9404680  )

     number of k points=    13  Gaussian smearing, width (Ry)=  0.0100
                       cart. coord. in units 2pi/alat
        k(    1) = (   0.0000000   0.0000000   0.0000000), wk =   0.0312500
        k(    2) = (   0.0000000   0.0000000   0.1553668), wk =   0.0625000
        k(    3) = (   0.0000000   0.0000000  -0.3107335), wk =   0.0312500
        k(    4) = (   0.0000000   0.2886751   0.0000000), wk =   0.1875000
        k(    5) = (   0.0000000   0.2886751   0.1553668), wk =   0.1875000
        k(    6) = (   0.0000000   0.2886751  -0.3107335), wk =   0.1875000
        k(    7) = (   0.0000000  -0.5773503   0.0000000), wk =   0.0937500
        k(    8) = (   0.0000000  -0.5773503   0.1553668), wk =   0.1875000
        k(    9) = (   0.0000000  -0.5773503  -0.3107335), wk =   0.0937500
        k(   10) = (   0.2500000   0.4330127   0.0000000), wk =   0.1875000
        k(   11) = (   0.2500000   0.4330127   0.1553668), wk =   0.3750000
        k(   12) = (   0.2500000   0.4330127  -0.3107335), wk =   0.1875000
        k(   13) = (   0.0000000  -0.2886751   0.1553668), wk =   0.1875000

                       cryst. coord.
        k(    1) = (   0.0000000   0.0000000   0.0000000), wk =   0.0312500
        k(    2) = (   0.0000000   0.0000000   0.2500000), wk =   0.0625000
        k(    3) = (   0.0000000   0.0000000  -0.5000000), wk =   0.0312500
        k(    4) = (   0.0000000   0.2500000   0.0000000), wk =   0.1875000
        k(    5) = (   0.0000000   0.2500000   0.2500000), wk =   0.1875000
        k(    6) = (   0.0000000   0.2500000  -0.5000000), wk =   0.1875000
        k(    7) = (   0.0000000  -0.5000000   0.0000000), wk =   0.0937500
        k(    8) = (   0.0000000  -0.5000000   0.2500000), wk =   0.1875000
        k(    9) = (   0.0000000  -0.5000000  -0.5000000), wk =   0.0937500
        k(   10) = (   0.2500000   0.2500000   0.0000000), wk =   0.1875000
        k(   11) = (   0.2500000   0.2500000   0.2500000), wk =   0.3750000
        k(   12) = (   0.2500000   0.2500000  -0.5000000), wk =   0.1875000
        k(   13) = (   0.0000000  -0.2500000   0.2500000), wk =   0.1875000

     Dense  grid:   250955 G-vectors     FFT dimensions: (  72,  72, 120)

     Smooth grid:    88801 G-vectors     FFT dimensions: (  50,  50,  80)

     Dynamical RAM for                 wfc:       7.28 MB

     Dynamical RAM for     wfc (w. buffer):     101.93 MB

     Dynamical RAM for           str. fact:       2.87 MB

     Dynamical RAM for           local pot:       0.00 MB

     Dynamical RAM for          nlocal pot:      17.61 MB

     Dynamical RAM for                qrad:       4.31 MB

     Dynamical RAM for          rho,v,vnew:       6.43 MB

     Dynamical RAM for               rhoin:       2.14 MB

     Dynamical RAM for            rho*nmix:      15.32 MB

     Dynamical RAM for           G-vectors:       3.76 MB

     Dynamical RAM for          h,s,v(r/c):       1.35 MB

     Dynamical RAM for          <psi|beta>:       1.09 MB

     Dynamical RAM for                 psi:      14.56 MB

     Dynamical RAM for                hpsi:      14.56 MB

     Dynamical RAM for                spsi:      14.56 MB

     Dynamical RAM for      wfcinit/wfcrot:      18.51 MB

     Dynamical RAM for           addusdens:     193.39 MB

     Estimated static dynamical RAM per process >     164.13 MB

     Estimated max dynamical RAM per process >     357.51 MB

     Estimated total dynamical RAM >       1.40 GB

     Check: negative core charge=   -0.000002

     Initial potential from superposition of free atoms

     starting charge  285.93925, renormalised to  286.00000
     Starting wfcs are  207 randomized atomic wfcs
     Checking if some PAW data can be deallocated... 
       PAW data deallocated on    3 nodes for type:  3

     total cpu time spent up to now is       36.4 secs

     Self-consistent Calculation

     iteration #  1     ecut=    40.00 Ry     beta= 0.70
     Davidson diagonalization with overlap
     ethr =  1.00E-02,  avg # of iterations =  4.1

     total cpu time spent up to now is      133.0 secs

     total energy              =   -2874.85687091 Ry
     estimated scf accuracy    <       6.66436338 Ry

     iteration #  2     ecut=    40.00 Ry     beta= 0.70
     Davidson diagonalization with overlap
     ethr =  2.33E-03,  avg # of iterations =  4.7

     total cpu time spent up to now is      272.8 secs

     total energy              =   -2876.43287777 Ry
     estimated scf accuracy    <       9.70893994 Ry

     iteration #  3     ecut=    40.00 Ry     beta= 0.70
     Davidson diagonalization with overlap
     ethr =  2.33E-03,  avg # of iterations =  3.0

     total cpu time spent up to now is      361.6 secs

     total energy              =   -2877.66734725 Ry
     estimated scf accuracy    <       0.59583186 Ry

     iteration #  4     ecut=    40.00 Ry     beta= 0.70
     Davidson diagonalization with overlap
     ethr =  2.08E-04,  avg # of iterations =  6.8

     total cpu time spent up to now is      533.5 secs

     total energy              =   -2878.25439935 Ry
     estimated scf accuracy    <       0.21678601 Ry

     iteration #  5     ecut=    40.00 Ry     beta= 0.70
     Davidson diagonalization with overlap
     ethr =  7.58E-05,  avg # of iterations = 10.8

     total cpu time spent up to now is      647.5 secs

     total energy              =   -2878.26175641 Ry
     estimated scf accuracy    <       0.05026742 Ry

     iteration #  6     ecut=    40.00 Ry     beta= 0.70
     Davidson diagonalization with overlap
     c_bands:  1 eigenvalues not converged
     ethr =  1.76E-05,  avg # of iterations = 11.2

     total cpu time spent up to now is      813.1 secs

     total energy              =   -2878.27716973 Ry
     estimated scf accuracy    <       0.00085092 Ry

     iteration #  7     ecut=    40.00 Ry     beta= 0.70
     Davidson diagonalization with overlap
     ethr =  2.98E-07,  avg # of iterations =  9.5

     total cpu time spent up to now is     1005.6 secs

     total energy              =   -2878.27796979 Ry
     estimated scf accuracy    <       0.00093806 Ry

     iteration #  8     ecut=    40.00 Ry     beta= 0.70
     Davidson diagonalization with overlap
     ethr =  2.98E-07,  avg # of iterations =  1.5

     total cpu time spent up to now is     1092.3 secs

     total energy              =   -2878.27796355 Ry
     estimated scf accuracy    <       0.00025026 Ry

     iteration #  9     ecut=    40.00 Ry     beta= 0.70
     Davidson diagonalization with overlap
     ethr =  8.75E-08,  avg # of iterations =  3.4

     total cpu time spent up to now is     1211.3 secs

     total energy              =   -2878.27802387 Ry
     estimated scf accuracy    <       0.00000964 Ry

     iteration # 10     ecut=    40.00 Ry     beta= 0.70
     Davidson diagonalization with overlap
     ethr =  3.37E-09,  avg # of iterations =  6.2

     total cpu time spent up to now is     1378.1 secs

     total energy              =   -2878.27803414 Ry
     estimated scf accuracy    <       0.00002178 Ry

     iteration # 11     ecut=    40.00 Ry     beta= 0.70
     Davidson diagonalization with overlap
     ethr =  3.37E-09,  avg # of iterations =  2.0

     total cpu time spent up to now is     1460.7 secs

     total energy              =   -2878.27803375 Ry
     estimated scf accuracy    <       0.00000614 Ry

     iteration # 12     ecut=    40.00 Ry     beta= 0.70
     Davidson diagonalization with overlap
     ethr =  2.15E-09,  avg # of iterations =  3.1

     total cpu time spent up to now is     1546.5 secs

     total energy              =   -2878.27803413 Ry
     estimated scf accuracy    <       0.00000101 Ry

     iteration # 13     ecut=    40.00 Ry     beta= 0.70
     Davidson diagonalization with overlap
     ethr =  3.52E-10,  avg # of iterations =  5.8

     total cpu time spent up to now is     1681.1 secs

     total energy              =   -2878.27803482 Ry
     estimated scf accuracy    <       0.00000047 Ry

     iteration # 14     ecut=    40.00 Ry     beta= 0.70
     Davidson diagonalization with overlap
     ethr =  1.64E-10,  avg # of iterations =  1.1

     total cpu time spent up to now is     1751.6 secs

     total energy              =   -2878.27803478 Ry
     estimated scf accuracy    <       0.00000016 Ry

     iteration # 15     ecut=    40.00 Ry     beta= 0.70
     Davidson diagonalization with overlap
     ethr =  5.57E-11,  avg # of iterations =  2.4

     total cpu time spent up to now is     1842.5 secs

     End of self-consistent calculation

          k = 0.0000 0.0000 0.0000 ( 11175 PWs)   bands (ev):

   -28.9495 -11.6065 -11.5865 -11.5864 -10.6820 -10.3693 -10.2672 -10.0645
   -10.0519 -10.0519  -9.9979  -9.9607  -9.9607  -9.8995  -9.8723  -9.8723
    -9.6787  -8.4004  -8.2605  -8.2604   1.2423   1.2638   1.2638   1.2877
     1.2877   1.3442   1.4510   1.4510   1.4733   1.4812   1.5229   1.6376
     1.6376   1.6672   1.6672   1.7029   1.7029   1.7316   1.7556   1.7724
     1.7724   1.8839   1.8839   1.8860   1.9575   1.9575   2.0507   2.1032
     2.1156   2.1156   2.1306   2.1703   2.1703   2.2165   2.2165   2.2229
     2.2578   2.2578   2.2705   2.3258   2.3258   2.3595   2.3595   2.4207
     2.4647   2.7489   2.7489   2.7495   2.8050   2.8050   2.8680   2.8680
     2.9131   2.9131   2.9411   2.9438   2.9624   2.9624   2.9722   2.9722
     2.9738   2.9986   2.9986   3.0013   3.0246   3.0246   3.0462   3.0462
     3.0550   3.0665   3.0666   3.0768   3.1177   3.1177   3.1224   3.2224
     3.4058   3.4058   3.5202   3.5265   3.5265   3.5608   3.5699   3.5699
     3.6812   3.7940   3.7940   4.3892   4.4841   4.4841   4.6951   4.8093
     5.0462   5.1590   5.1590   5.3776   5.6381   5.6381   5.7716   5.8200
     5.8367   5.8689   5.8689   5.8784   5.8784   5.9311   5.9311   5.9967
     6.1207   6.1207   6.2655   6.3981   6.3981   6.4450   6.4450   6.4617
     6.7567   6.7568   6.9018   6.9019   7.1088   7.2128   7.2128   8.2263
    10.6952  10.8593  12.5110  12.8671  12.8671  12.9055  12.9827  12.9827
    13.1773  13.2116  13.2116  13.7411  14.0062  14.0062  14.2661  14.6060
    14.6060  14.7547  15.3267  15.3267  15.4177  15.6010  15.6010  15.6207
    15.6466  15.6466  15.6757  16.2874

     occupation numbers 
     1.0000   1.0000   1.0000   1.0000   1.0000   1.0000   1.0000   1.0000
     1.0000   1.0000   1.0000   1.0000   1.0000   1.0000   1.0000   1.0000
     1.0000   1.0000   1.0000   1.0000   1.0000   1.0000   1.0000   1.0000
     1.0000   1.0000   1.0000   1.0000   1.0000   1.0000   1.0000   1.0000
     1.0000   1.0000   1.0000   1.0000   1.0000   1.0000   1.0000   1.0000
     1.0000   1.0000   1.0000   1.0000   1.0000   1.0000   1.0000   1.0000
     1.0000   1.0000   1.0000   1.0000   1.0000   1.0000   1.0000   1.0000
     1.0000   1.0000   1.0000   1.0000   1.0000   1.0000   1.0000   1.0000
     1.0000   1.0000   1.0000   1.0000   1.0000   1.0000   1.0000   1.0000
     1.0000   1.0000   1.0000   1.0000   1.0000   1.0000   1.0000   1.0000
     1.0000   1.0000   1.0000   1.0000   1.0000   1.0000   1.0000   1.0000
     1.0000   1.0000   1.0000   1.0000   1.0000   1.0000   1.0000   1.0000
     1.0000   1.0000   1.0000   1.0000   1.0000   1.0000   1.0000   1.0000
     1.0000   1.0000   1.0000   1.0000   1.0000   1.0000   1.0000   1.0000
     1.0000   1.0000   1.0000   1.0000   1.0000   1.0000   1.0000   1.0000
     1.0000   1.0000   1.0000   1.0000   1.0000   1.0000   1.0000   1.0000
     1.0000   1.0000   1.0000   1.0000   1.0000   1.0000   1.0000   1.0000
     1.0000   1.0000   1.0000   1.0000   1.0000   1.0000   1.0000   0.0000
     0.0000   0.0000   0.0000   0.0000   0.0000   0.0000   0.0000   0.0000
     0.0000   0.0000   0.0000   0.0000   0.0000   0.0000   0.0000   0.0000
     0.0000   0.0000   0.0000   0.0000   0.0000   0.0000   0.0000   0.0000
     0.0000   0.0000   0.0000   0.0000

          k = 0.0000 0.0000 0.1554 ( 11134 PWs)   bands (ev):

   -28.9495 -11.6074 -11.5865 -11.5864 -10.6539 -10.4498 -10.1998 -10.0733
   -10.0508 -10.0508  -9.9976  -9.9630  -9.9630  -9.9056  -9.8711  -9.8711
    -9.6780  -8.4005  -8.2605  -8.2604   1.2767   1.2854   1.2854   1.3314
     1.3315   1.3605   1.4319   1.4319   1.4574   1.4936   1.5481   1.6014
     1.6014   1.6518   1.6518   1.6833   1.6952   1.6952   1.7192   1.7818
     1.7818   1.8800   1.8800   1.9003   1.9578   1.9578   2.0137   2.0237
     2.0921   2.0921   2.1925   2.1925   2.2184   2.2213   2.2214   2.2226
     2.2544   2.2654   2.2654   2.2961   2.2961   2.3556   2.3556   2.3942
     2.4631   2.7478   2.7478   2.7768   2.8185   2.8185   2.8813   2.8813
     2.9091   2.9091   2.9412   2.9524   2.9634   2.9634   2.9726   2.9805
     2.9805   2.9996   2.9996   3.0058   3.0101   3.0101   3.0410   3.0410
     3.0489   3.0611   3.0616   3.0616   3.1218   3.1218   3.1290   3.3527
     3.4020   3.4020   3.4986   3.4986   3.5334   3.5696   3.5955   3.5956
     3.6769   3.7746   3.7746   4.2901   4.4579   4.6498   4.6499   5.0327
     5.1082   5.1894   5.1894   5.3862   5.4965   5.4965   5.5255   5.5967
     5.5967   5.8922   5.9407   5.9407   6.0569   6.0778   6.0959   6.0959
     6.1838   6.1838   6.2366   6.3814   6.3814   6.4136   6.4620   6.4620
     6.6891   6.6892   6.8487   6.9610   6.9610   7.1973   7.1973   8.5790
    10.0242  11.4590  12.3772  12.7057  12.7057  12.8330  12.9742  12.9743
    13.2425  13.4171  13.4171  13.7749  13.9495  13.9495  14.1819  14.7171
    14.7171  14.8766  15.3043  15.3043  15.4709  15.4732  15.4732  15.5652
    15.7423  15.7424  15.7451  16.2734

     occupation numbers 
     1.0000   1.0000   1.0000   1.0000   1.0000   1.0000   1.0000   1.0000
     1.0000   1.0000   1.0000   1.0000   1.0000   1.0000   1.0000   1.0000
     1.0000   1.0000   1.0000   1.0000   1.0000   1.0000   1.0000   1.0000
     1.0000   1.0000   1.0000   1.0000   1.0000   1.0000   1.0000   1.0000
     1.0000   1.0000   1.0000   1.0000   1.0000   1.0000   1.0000   1.0000
     1.0000   1.0000   1.0000   1.0000   1.0000   1.0000   1.0000   1.0000
     1.0000   1.0000   1.0000   1.0000   1.0000   1.0000   1.0000   1.0000
     1.0000   1.0000   1.0000   1.0000   1.0000   1.0000   1.0000   1.0000
     1.0000   1.0000   1.0000   1.0000   1.0000   1.0000   1.0000   1.0000
     1.0000   1.0000   1.0000   1.0000   1.0000   1.0000   1.0000   1.0000
     1.0000   1.0000   1.0000   1.0000   1.0000   1.0000   1.0000   1.0000
     1.0000   1.0000   1.0000   1.0000   1.0000   1.0000   1.0000   1.0000
     1.0000   1.0000   1.0000   1.0000   1.0000   1.0000   1.0000   1.0000
     1.0000   1.0000   1.0000   1.0000   1.0000   1.0000   1.0000   1.0000
     1.0000   1.0000   1.0000   1.0000   1.0000   1.0000   1.0000   1.0000
     1.0000   1.0000   1.0000   1.0000   1.0000   1.0000   1.0000   1.0000
     1.0000   1.0000   1.0000   1.0000   1.0000   1.0000   1.0000   1.0000
     1.0000   1.0000   1.0000   1.0000   1.0000   1.0000   1.0000   0.0000
     0.0000   0.0000   0.0000   0.0000   0.0000   0.0000   0.0000   0.0000
     0.0000   0.0000   0.0000   0.0000   0.0000   0.0000   0.0000   0.0000
     0.0000   0.0000   0.0000   0.0000   0.0000   0.0000   0.0000   0.0000
     0.0000   0.0000   0.0000   0.0000

          k = 0.0000 0.0000-0.3107 ( 11104 PWs)   bands (ev):

   -28.9494 -11.6083 -11.5865 -11.5864 -10.6011 -10.5315 -10.1405 -10.1001
   -10.0497 -10.0497  -9.9933  -9.9654  -9.9654  -9.9132  -9.8699  -9.8699
    -9.6773  -8.4006  -8.2605  -8.2604   1.3298   1.3298   1.3414   1.3554
     1.3554   1.3620   1.4211   1.4603   1.4604   1.4985   1.4985   1.5394
     1.5896   1.5943   1.6508   1.6508   1.6805   1.6883   1.6883   1.7927
     1.7928   1.8749   1.8749   1.9295   1.9588   1.9588   1.9677   1.9784
     2.0752   2.0752   2.2042   2.2042   2.2098   2.2451   2.2451   2.2486
     2.2495   2.2495   2.2786   2.2787   2.3124   2.3310   2.3496   2.3496
     2.4598   2.7457   2.7457   2.8033   2.8403   2.8403   2.8622   2.8622
     2.9414   2.9564   2.9564   2.9567   2.9604   2.9604   2.9653   2.9653
     2.9715   2.9934   2.9934   3.0029   3.0029   3.0115   3.0322   3.0322
     3.0414   3.0465   3.0605   3.0605   3.1250   3.1250   3.1324   3.3990
     3.3990   3.4395   3.4780   3.4780   3.5686   3.6203   3.6203   3.6674
     3.7359   3.7498   3.7498   3.9405   4.4985   5.0246   5.0246   5.0264
     5.0579   5.0579   5.2448   5.2448   5.2633   5.2998   5.5031   5.5152
     5.5152   5.9020   6.0006   6.0007   6.1542   6.1630   6.1631   6.2138
     6.2138   6.2501   6.2924   6.3079   6.3701   6.3701   6.4790   6.4790
     6.5491   6.6334   6.6334   7.0103   7.0103   7.1772   7.1772   9.1712
     9.3582  11.9322  12.0868  12.6460  12.6460  12.7825  12.8880  12.8881
    13.2598  13.7215  13.7215  13.7759  13.7759  13.9062  14.0268  14.8489
    14.8489  15.0389  15.2379  15.2379  15.3424  15.4199  15.4199  15.7691
    15.7757  15.7759  15.8937  15.9429

     occupation numbers 
     1.0000   1.0000   1.0000   1.0000   1.0000   1.0000   1.0000   1.0000
     1.0000   1.0000   1.0000   1.0000   1.0000   1.0000   1.0000   1.0000
     1.0000   1.0000   1.0000   1.0000   1.0000   1.0000   1.0000   1.0000
     1.0000   1.0000   1.0000   1.0000   1.0000   1.0000   1.0000   1.0000
     1.0000   1.0000   1.0000   1.0000   1.0000   1.0000   1.0000   1.0000
     1.0000   1.0000   1.0000   1.0000   1.0000   1.0000   1.0000   1.0000
     1.0000   1.0000   1.0000   1.0000   1.0000   1.0000   1.0000   1.0000
     1.0000   1.0000   1.0000   1.0000   1.0000   1.0000   1.0000   1.0000
     1.0000   1.0000   1.0000   1.0000   1.0000   1.0000   1.0000   1.0000
     1.0000   1.0000   1.0000   1.0000   1.0000   1.0000   1.0000   1.0000
     1.0000   1.0000   1.0000   1.0000   1.0000   1.0000   1.0000   1.0000
     1.0000   1.0000   1.0000   1.0000   1.0000   1.0000   1.0000   1.0000
     1.0000   1.0000   1.0000   1.0000   1.0000   1.0000   1.0000   1.0000
     1.0000   1.0000   1.0000   1.0000   1.0000   1.0000   1.0000   1.0000
     1.0000   1.0000   1.0000   1.0000   1.0000   1.0000   1.0000   1.0000
     1.0000   1.0000   1.0000   1.0000   1.0000   1.0000   1.0000   1.0000
     1.0000   1.0000   1.0000   1.0000   1.0000   1.0000   1.0000   1.0000
     1.0000   1.0000   1.0000   1.0000   1.0000   1.0000   1.0000   0.0000
     0.0000   0.0000   0.0000   0.0000   0.0000   0.0000   0.0000   0.0000
     0.0000   0.0000   0.0000   0.0000   0.0000   0.0000   0.0000   0.0000
     0.0000   0.0000   0.0000   0.0000   0.0000   0.0000   0.0000   0.0000
     0.0000   0.0000   0.0000   0.0000

          k = 0.0000 0.2887 0.0000 ( 11087 PWs)   bands (ev):

   -28.9494 -11.6245 -11.5941 -11.5895 -10.5935 -10.3179 -10.2250 -10.1410
   -10.0742 -10.0545 -10.0119  -9.9907  -9.9624  -9.9106  -9.8798  -9.8707
    -9.6603  -8.3996  -8.2980  -8.2564   1.2634   1.2847   1.3376   1.3418
     1.3770   1.3798   1.4084   1.4334   1.4925   1.5101   1.5599   1.5773
     1.6914   1.7209   1.7506   1.7560   1.7713   1.7752   1.8074   1.8321
     1.8346   1.8676   1.8866   1.9127   1.9413   1.9555   2.0257   2.0391
     2.0523   2.0630   2.0795   2.1137   2.1188   2.1559   2.1718   2.1879
     2.2051   2.2069   2.2292   2.2675   2.3011   2.3510   2.4027   2.4321
     2.4927   2.6684   2.7186   2.7328   2.7767   2.8026   2.8202   2.8417
     2.8744   2.8946   2.9049   2.9179   2.9201   2.9220   2.9322   2.9450
     2.9494   2.9575   2.9699   2.9852   3.0131   3.0310   3.0414   3.0426
     3.0683   3.0685   3.0943   3.0977   3.1556   3.1739   3.2211   3.2406
     3.3811   3.4337   3.5168   3.5876   3.6357   3.7033   3.8125   3.8857
     3.9117   3.9807   4.0341   4.3051   4.4766   4.6239   4.7611   4.8277
     4.8640   4.9745   5.2728   5.2915   5.4009   5.4773   5.5420   5.5802
     5.7938   5.8256   5.8784   5.9403   5.9466   5.9691   5.9977   5.9979
     6.0621   6.0857   6.1968   6.2527   6.2556   6.3576   6.3778   6.4532
     6.5129   6.5427   6.5983   6.6663   6.7940   7.0215   7.1055   9.1543
    11.1535  11.2909  12.0643  12.6886  12.8455  13.0442  13.0622  13.2089
    13.2652  13.4501  13.4653  13.6883  14.5183  14.5322  14.6885  14.7406
    14.9035  14.9832  15.3827  15.4612  15.6052  15.6684  15.7325  15.7648
    15.7659  15.8565  15.8896  16.2966

     occupation numbers 
     1.0000   1.0000   1.0000   1.0000   1.0000   1.0000   1.0000   1.0000
     1.0000   1.0000   1.0000   1.0000   1.0000   1.0000   1.0000   1.0000
     1.0000   1.0000   1.0000   1.0000   1.0000   1.0000   1.0000   1.0000
     1.0000   1.0000   1.0000   1.0000   1.0000   1.0000   1.0000   1.0000
     1.0000   1.0000   1.0000   1.0000   1.0000   1.0000   1.0000   1.0000
     1.0000   1.0000   1.0000   1.0000   1.0000   1.0000   1.0000   1.0000
     1.0000   1.0000   1.0000   1.0000   1.0000   1.0000   1.0000   1.0000
     1.0000   1.0000   1.0000   1.0000   1.0000   1.0000   1.0000   1.0000
     1.0000   1.0000   1.0000   1.0000   1.0000   1.0000   1.0000   1.0000
     1.0000   1.0000   1.0000   1.0000   1.0000   1.0000   1.0000   1.0000
     1.0000   1.0000   1.0000   1.0000   1.0000   1.0000   1.0000   1.0000
     1.0000   1.0000   1.0000   1.0000   1.0000   1.0000   1.0000   1.0000
     1.0000   1.0000   1.0000   1.0000   1.0000   1.0000   1.0000   1.0000
     1.0000   1.0000   1.0000   1.0000   1.0000   1.0000   1.0000   1.0000
     1.0000   1.0000   1.0000   1.0000   1.0000   1.0000   1.0000   1.0000
     1.0000   1.0000   1.0000   1.0000   1.0000   1.0000   1.0000   1.0000
     1.0000   1.0000   1.0000   1.0000   1.0000   1.0000   1.0000   1.0000
     1.0000   1.0000   1.0000   1.0000   1.0000   1.0000   1.0000   0.0000
     0.0000   0.0000   0.0000   0.0000   0.0000   0.0000   0.0000   0.0000
     0.0000   0.0000   0.0000   0.0000   0.0000   0.0000   0.0000   0.0000
     0.0000   0.0000   0.0000   0.0000   0.0000   0.0000   0.0000   0.0000
     0.0000   0.0000   0.0000   0.0000

          k = 0.0000 0.2887 0.1554 ( 11105 PWs)   bands (ev):

   -28.9494 -11.6247 -11.5946 -11.5895 -10.5701 -10.3840 -10.1681 -10.1397
   -10.0885 -10.0535 -10.0132  -9.9825  -9.9647  -9.9173  -9.8820  -9.8695
    -9.6589  -8.3998  -8.2979  -8.2564   1.2671   1.3299   1.3525   1.3533
     1.4131   1.4232   1.4286   1.4636   1.4960   1.5074   1.5471   1.5654
     1.6757   1.6863   1.7203   1.7211   1.7517   1.7565   1.7913   1.8194
     1.8407   1.8740   1.8769   1.9085   1.9309   1.9406   1.9644   2.0258
     2.0425   2.0614   2.0897   2.1305   2.1422   2.1685   2.1727   2.1885
     2.1990   2.2184   2.2291   2.2621   2.2994   2.3280   2.3583   2.3851
     2.4727   2.6763   2.7273   2.7332   2.7952   2.8106   2.8283   2.8530
     2.8564   2.8884   2.8891   2.8935   2.9111   2.9264   2.9298   2.9417
     2.9510   2.9705   2.9858   2.9875   3.0129   3.0272   3.0372   3.0407
     3.0640   3.0689   3.0997   3.1074   3.1621   3.1832   3.2028   3.3700
     3.4526   3.4646   3.5045   3.5065   3.6648   3.7732   3.8057   3.8969
     3.9135   4.0004   4.0872   4.2644   4.4803   4.5672   4.7538   4.8989
     4.9469   5.0871   5.1250   5.2118   5.3881   5.3966   5.5277   5.6158
     5.6926   5.7084   5.8020   5.8520   5.9648   5.9765   6.1001   6.1156
     6.1350   6.1631   6.2030   6.2594   6.2652   6.3559   6.3844   6.3868
     6.4549   6.4714   6.6539   6.7264   6.8288   6.9963   7.0924   9.3445
    10.5030  11.9013  12.0781  12.4039  12.9424  12.9730  13.0463  13.1211
    13.2306  13.5093  13.7523  13.8225  14.3572  14.3929  14.5352  14.9265
    14.9721  15.1118  15.3423  15.4788  15.6140  15.6585  15.7095  15.7509
    15.8060  15.8214  15.8941  16.3075

     occupation numbers 
     1.0000   1.0000   1.0000   1.0000   1.0000   1.0000   1.0000   1.0000
     1.0000   1.0000   1.0000   1.0000   1.0000   1.0000   1.0000   1.0000
     1.0000   1.0000   1.0000   1.0000   1.0000   1.0000   1.0000   1.0000
     1.0000   1.0000   1.0000   1.0000   1.0000   1.0000   1.0000   1.0000
     1.0000   1.0000   1.0000   1.0000   1.0000   1.0000   1.0000   1.0000
     1.0000   1.0000   1.0000   1.0000   1.0000   1.0000   1.0000   1.0000
     1.0000   1.0000   1.0000   1.0000   1.0000   1.0000   1.0000   1.0000
     1.0000   1.0000   1.0000   1.0000   1.0000   1.0000   1.0000   1.0000
     1.0000   1.0000   1.0000   1.0000   1.0000   1.0000   1.0000   1.0000
     1.0000   1.0000   1.0000   1.0000   1.0000   1.0000   1.0000   1.0000
     1.0000   1.0000   1.0000   1.0000   1.0000   1.0000   1.0000   1.0000
     1.0000   1.0000   1.0000   1.0000   1.0000   1.0000   1.0000   1.0000
     1.0000   1.0000   1.0000   1.0000   1.0000   1.0000   1.0000   1.0000
     1.0000   1.0000   1.0000   1.0000   1.0000   1.0000   1.0000   1.0000
     1.0000   1.0000   1.0000   1.0000   1.0000   1.0000   1.0000   1.0000
     1.0000   1.0000   1.0000   1.0000   1.0000   1.0000   1.0000   1.0000
     1.0000   1.0000   1.0000   1.0000   1.0000   1.0000   1.0000   1.0000
     1.0000   1.0000   1.0000   1.0000   1.0000   1.0000   1.0000   0.0000
     0.0000   0.0000   0.0000   0.0000   0.0000   0.0000   0.0000   0.0000
     0.0000   0.0000   0.0000   0.0000   0.0000   0.0000   0.0000   0.0000
     0.0000   0.0000   0.0000   0.0000   0.0000   0.0000   0.0000   0.0000
     0.0000   0.0000   0.0000   0.0000

          k = 0.0000 0.2887-0.3107 ( 11114 PWs)   bands (ev):

   -28.9494 -11.6248 -11.5951 -11.5895 -10.5303 -10.4476 -10.1496 -10.1171
   -10.0888 -10.0527 -10.0309  -9.9746  -9.9663  -9.9251  -9.8827  -9.8687
    -9.6572  -8.3999  -8.2978  -8.2564   1.2911   1.3319   1.3953   1.4012
     1.4317   1.4354   1.4823   1.4979   1.5093   1.5402   1.5554   1.5704
     1.6000   1.6054   1.6260   1.7042   1.7394   1.7422   1.7698   1.8190
     1.8578   1.8840   1.8842   1.9078   1.9134   1.9198   1.9333   2.0046
     2.0425   2.0454   2.0973   2.1317   2.1437   2.1651   2.1715   2.1941
     2.2391   2.2401   2.2548   2.2612   2.2682   2.2972   2.3254   2.3282
     2.4556   2.6889   2.7316   2.7335   2.8138   2.8287   2.8306   2.8464
     2.8490   2.8573   2.8719   2.8957   2.9165   2.9181   2.9282   2.9495
     2.9514   2.9820   2.9940   2.9987   3.0089   3.0175   3.0333   3.0368
     3.0578   3.0655   3.1068   3.1182   3.1567   3.1964   3.1981   3.4226
     3.4402   3.4975   3.5149   3.6315   3.7243   3.7893   3.7928   3.8930
     3.9347   3.9731   4.0932   4.1724   4.4654   4.7909   4.8134   4.8684
     4.9325   5.0924   5.1477   5.2270   5.2370   5.2639   5.4547   5.4668
     5.5868   5.7587   5.9098   5.9120   5.9931   5.9956   6.0567   6.1444
     6.1483   6.2046   6.2292   6.2570   6.2768   6.3317   6.3721   6.3918
     6.4222   6.4654   6.5946   6.8496   6.9041   6.9070   7.0630   9.7686
     9.9193  12.0886  12.1840  12.4549  12.6395  12.8973  13.0097  13.0778
    13.2904  13.8229  13.9295  14.0602  14.1137  14.1926  14.3361  15.0520
    15.0931  15.2197  15.3482  15.4493  15.5347  15.6065  15.7560  15.8341
    15.8450  15.8651  15.9058  15.9542

     occupation numbers 
     1.0000   1.0000   1.0000   1.0000   1.0000   1.0000   1.0000   1.0000
     1.0000   1.0000   1.0000   1.0000   1.0000   1.0000   1.0000   1.0000
     1.0000   1.0000   1.0000   1.0000   1.0000   1.0000   1.0000   1.0000
     1.0000   1.0000   1.0000   1.0000   1.0000   1.0000   1.0000   1.0000
     1.0000   1.0000   1.0000   1.0000   1.0000   1.0000   1.0000   1.0000
     1.0000   1.0000   1.0000   1.0000   1.0000   1.0000   1.0000   1.0000
     1.0000   1.0000   1.0000   1.0000   1.0000   1.0000   1.0000   1.0000
     1.0000   1.0000   1.0000   1.0000   1.0000   1.0000   1.0000   1.0000
     1.0000   1.0000   1.0000   1.0000   1.0000   1.0000   1.0000   1.0000
     1.0000   1.0000   1.0000   1.0000   1.0000   1.0000   1.0000   1.0000
     1.0000   1.0000   1.0000   1.0000   1.0000   1.0000   1.0000   1.0000
     1.0000   1.0000   1.0000   1.0000   1.0000   1.0000   1.0000   1.0000
     1.0000   1.0000   1.0000   1.0000   1.0000   1.0000   1.0000   1.0000
     1.0000   1.0000   1.0000   1.0000   1.0000   1.0000   1.0000   1.0000
     1.0000   1.0000   1.0000   1.0000   1.0000   1.0000   1.0000   1.0000
     1.0000   1.0000   1.0000   1.0000   1.0000   1.0000   1.0000   1.0000
     1.0000   1.0000   1.0000   1.0000   1.0000   1.0000   1.0000   1.0000
     1.0000   1.0000   1.0000   1.0000   1.0000   1.0000   1.0000   0.0000
     0.0000   0.0000   0.0000   0.0000   0.0000   0.0000   0.0000   0.0000
     0.0000   0.0000   0.0000   0.0000   0.0000   0.0000   0.0000   0.0000
     0.0000   0.0000   0.0000   0.0000   0.0000   0.0000   0.0000   0.0000
     0.0000   0.0000   0.0000   0.0000

          k = 0.0000-0.5774 0.0000 ( 11086 PWs)   bands (ev):

   -28.9494 -11.6509 -11.5926 -11.5911 -10.4083 -10.3656 -10.1926 -10.1801
   -10.1280 -10.0571 -10.0216 -10.0052  -9.9641  -9.9433  -9.8838  -9.8692
    -9.6380  -8.3943  -8.3421  -8.2524   1.2972   1.3165   1.3428   1.3483
     1.4218   1.4412   1.4526   1.4653   1.4959   1.5893   1.6339   1.6357
     1.7155   1.7420   1.7768   1.7849   1.8195   1.8313   1.8841   1.8936
     1.8997   1.9118   1.9121   1.9190   1.9231   1.9341   1.9431   1.9628
     1.9655   2.0135   2.0187   2.0436   2.0708   2.1049   2.1101   2.1443
     2.1616   2.1862   2.1903   2.2321   2.2881   2.3717   2.3842   2.5190
     2.5663   2.5978   2.6758   2.6880   2.6915   2.7465   2.7597   2.8094
     2.8367   2.8542   2.8590   2.8819   2.9132   2.9143   2.9162   2.9185
     2.9285   2.9296   2.9373   2.9826   3.0044   3.0271   3.0337   3.0426
     3.0774   3.1025   3.1168   3.1557   3.1691   3.2331   3.2366   3.3103
     3.3145   3.3885   3.5024   3.7567   3.8111   3.8368   4.0689   4.0952
     4.1990   4.3921   4.4303   4.4867   4.5472   4.6199   4.7150   4.7393
     4.7864   4.8560   5.0088   5.0591   5.2115   5.2247   5.3309   5.4508
     5.6709   5.6847   5.8622   5.9082   5.9400   5.9476   5.9645   5.9815
     5.9990   6.0122   6.0291   6.0965   6.1176   6.1843   6.3320   6.3432
     6.3480   6.4577   6.6300   6.6924   6.7904   6.7998   6.9211  10.5275
    10.6556  11.9742  12.0392  12.0982  12.2808  13.1363  13.1809  13.6255
    13.6434  13.7966  13.8791  14.2416  14.3973  14.6972  14.7449  15.1923
    15.2288  15.3742  15.5864  15.6749  15.7461  15.8805  15.9340  15.9908
    16.0768  16.2928  16.3127  16.5005

     occupation numbers 
     1.0000   1.0000   1.0000   1.0000   1.0000   1.0000   1.0000   1.0000
     1.0000   1.0000   1.0000   1.0000   1.0000   1.0000   1.0000   1.0000
     1.0000   1.0000   1.0000   1.0000   1.0000   1.0000   1.0000   1.0000
     1.0000   1.0000   1.0000   1.0000   1.0000   1.0000   1.0000   1.0000
     1.0000   1.0000   1.0000   1.0000   1.0000   1.0000   1.0000   1.0000
     1.0000   1.0000   1.0000   1.0000   1.0000   1.0000   1.0000   1.0000
     1.0000   1.0000   1.0000   1.0000   1.0000   1.0000   1.0000   1.0000
     1.0000   1.0000   1.0000   1.0000   1.0000   1.0000   1.0000   1.0000
     1.0000   1.0000   1.0000   1.0000   1.0000   1.0000   1.0000   1.0000
     1.0000   1.0000   1.0000   1.0000   1.0000   1.0000   1.0000   1.0000
     1.0000   1.0000   1.0000   1.0000   1.0000   1.0000   1.0000   1.0000
     1.0000   1.0000   1.0000   1.0000   1.0000   1.0000   1.0000   1.0000
     1.0000   1.0000   1.0000   1.0000   1.0000   1.0000   1.0000   1.0000
     1.0000   1.0000   1.0000   1.0000   1.0000   1.0000   1.0000   1.0000
     1.0000   1.0000   1.0000   1.0000   1.0000   1.0000   1.0000   1.0000
     1.0000   1.0000   1.0000   1.0000   1.0000   1.0000   1.0000   1.0000
     1.0000   1.0000   1.0000   1.0000   1.0000   1.0000   1.0000   1.0000
     1.0000   1.0000   1.0000   1.0000   1.0000   1.0000   1.0000   0.0000
     0.0000   0.0000   0.0000   0.0000   0.0000   0.0000   0.0000   0.0000
     0.0000   0.0000   0.0000   0.0000   0.0000   0.0000   0.0000   0.0000
     0.0000   0.0000   0.0000   0.0000   0.0000   0.0000   0.0000   0.0000
     0.0000   0.0000   0.0000   0.0000

          k = 0.0000-0.5774 0.1554 ( 11098 PWs)   bands (ev):

   -28.9494 -11.6508 -11.5926 -11.5916 -10.3936 -10.3541 -10.2510 -10.1848
   -10.0898 -10.0565 -10.0118 -10.0052  -9.9657  -9.9527  -9.8877  -9.8683
    -9.6354  -8.3944  -8.3419  -8.2524   1.3086   1.3240   1.3774   1.3903
     1.4271   1.4599   1.4753   1.4977   1.5285   1.5944   1.6222   1.6310
     1.6825   1.7050   1.7294   1.7912   1.8049   1.8327   1.8603   1.8711
     1.8938   1.9003   1.9143   1.9196   1.9271   1.9559   1.9595   1.9678
     1.9777   2.0165   2.0203   2.0391   2.0508   2.0860   2.0910   2.1386
     2.1489   2.1740   2.1910   2.2188   2.2591   2.3066   2.3531   2.3942
     2.5303   2.5879   2.6853   2.7035   2.7306   2.7642   2.7677   2.8228
     2.8229   2.8536   2.8666   2.8706   2.8833   2.8965   2.8984   2.9354
     2.9367   2.9521   2.9713   2.9872   3.0100   3.0204   3.0388   3.0412
     3.0687   3.0855   3.0941   3.1274   3.1633   3.2506   3.2645   3.4301
     3.4824   3.5036   3.5536   3.6759   3.8277   3.9040   4.0434   4.1184
     4.1771   4.3144   4.4083   4.4539   4.6017   4.6556   4.6905   4.8007
     4.8692   4.8986   4.9176   4.9660   5.2187   5.3464   5.3958   5.4403
     5.5365   5.5921   5.6187   5.7410   5.7568   5.8587   5.9223   5.9639
     6.0621   6.0873   6.1052   6.2124   6.2284   6.2955   6.3108   6.3689
     6.4490   6.4822   6.6383   6.7280   6.7809   6.7844   6.9011  10.6210
    10.7480  11.4003  11.5650  12.6873  12.8432  13.1479  13.2088  13.4081
    13.4850  13.9815  14.0570  14.0690  14.2115  14.6545  14.7153  15.1959
    15.3325  15.3881  15.6663  15.7045  15.7631  15.8648  15.8826  15.9664
    16.0022  16.1654  16.3443  16.4016

     occupation numbers 
     1.0000   1.0000   1.0000   1.0000   1.0000   1.0000   1.0000   1.0000
     1.0000   1.0000   1.0000   1.0000   1.0000   1.0000   1.0000   1.0000
     1.0000   1.0000   1.0000   1.0000   1.0000   1.0000   1.0000   1.0000
     1.0000   1.0000   1.0000   1.0000   1.0000   1.0000   1.0000   1.0000
     1.0000   1.0000   1.0000   1.0000   1.0000   1.0000   1.0000   1.0000
     1.0000   1.0000   1.0000   1.0000   1.0000   1.0000   1.0000   1.0000
     1.0000   1.0000   1.0000   1.0000   1.0000   1.0000   1.0000   1.0000
     1.0000   1.0000   1.0000   1.0000   1.0000   1.0000   1.0000   1.0000
     1.0000   1.0000   1.0000   1.0000   1.0000   1.0000   1.0000   1.0000
     1.0000   1.0000   1.0000   1.0000   1.0000   1.0000   1.0000   1.0000
     1.0000   1.0000   1.0000   1.0000   1.0000   1.0000   1.0000   1.0000
     1.0000   1.0000   1.0000   1.0000   1.0000   1.0000   1.0000   1.0000
     1.0000   1.0000   1.0000   1.0000   1.0000   1.0000   1.0000   1.0000
     1.0000   1.0000   1.0000   1.0000   1.0000   1.0000   1.0000   1.0000
     1.0000   1.0000   1.0000   1.0000   1.0000   1.0000   1.0000   1.0000
     1.0000   1.0000   1.0000   1.0000   1.0000   1.0000   1.0000   1.0000
     1.0000   1.0000   1.0000   1.0000   1.0000   1.0000   1.0000   1.0000
     1.0000   1.0000   1.0000   1.0000   1.0000   1.0000   1.0000   0.0000
     0.0000   0.0000   0.0000   0.0000   0.0000   0.0000   0.0000   0.0000
     0.0000   0.0000   0.0000   0.0000   0.0000   0.0000   0.0000   0.0000
     0.0000   0.0000   0.0000   0.0000   0.0000   0.0000   0.0000   0.0000
     0.0000   0.0000   0.0000   0.0000

          k = 0.0000-0.5774-0.3107 ( 11088 PWs)   bands (ev):

   -28.9494 -11.6507 -11.5926 -11.5920 -10.3748 -10.3287 -10.3024 -10.2033
   -10.0575 -10.0558 -10.0124  -9.9942  -9.9676  -9.9672  -9.8917  -9.8675
    -9.6329  -8.3945  -8.3418  -8.2524   1.3285   1.3502   1.3708   1.3937
     1.5177   1.5274   1.5409   1.5462   1.5647   1.5704   1.5775   1.5915
     1.6306   1.6559   1.6646   1.7899   1.8025   1.8308   1.8387   1.8610
     1.9008   1.9025   1.9097   1.9190   1.9256   1.9597   1.9780   1.9864
     1.9874   1.9946   2.0293   2.0329   2.0445   2.0482   2.0661   2.0746
     2.1312   2.1899   2.1996   2.2048   2.2550   2.2944   2.3046   2.3117
     2.4843   2.5938   2.7079   2.7157   2.7644   2.7836   2.7890   2.7960
     2.8120   2.8358   2.8440   2.8563   2.8761   2.8780   2.9122   2.9410
     2.9469   2.9668   2.9914   2.9939   3.0105   3.0136   3.0348   3.0541
     3.0623   3.0711   3.0762   3.1381   3.1638   3.2521   3.2617   3.5155
     3.5241   3.5741   3.7247   3.7682   3.9079   3.9524   3.9907   4.0956
     4.1193   4.1330   4.4083   4.5191   4.6080   4.6218   4.6780   4.7569
     4.8998   4.9645   5.1101   5.1107   5.1676   5.2284   5.2494   5.3662
     5.4141   5.4813   5.6062   5.7161   5.7627   5.8370   5.8695   5.9448
     5.9751   6.1228   6.1412   6.2084   6.2369   6.3347   6.3430   6.4629
     6.5183   6.6137   6.6565   6.7061   6.7415   6.7847   6.8816  10.8749
    10.9053  10.9963  11.1901  13.1003  13.1761  13.2558  13.2804  13.3801
    13.4331  13.5534  13.7781  14.2636  14.3037  14.5830  14.6344  15.1994
    15.3371  15.5081  15.7447  15.7785  15.8233  15.8457  15.8652  15.9132
    15.9201  15.9728  16.1550  16.5144

     occupation numbers 
     1.0000   1.0000   1.0000   1.0000   1.0000   1.0000   1.0000   1.0000
     1.0000   1.0000   1.0000   1.0000   1.0000   1.0000   1.0000   1.0000
     1.0000   1.0000   1.0000   1.0000   1.0000   1.0000   1.0000   1.0000
     1.0000   1.0000   1.0000   1.0000   1.0000   1.0000   1.0000   1.0000
     1.0000   1.0000   1.0000   1.0000   1.0000   1.0000   1.0000   1.0000
     1.0000   1.0000   1.0000   1.0000   1.0000   1.0000   1.0000   1.0000
     1.0000   1.0000   1.0000   1.0000   1.0000   1.0000   1.0000   1.0000
     1.0000   1.0000   1.0000   1.0000   1.0000   1.0000   1.0000   1.0000
     1.0000   1.0000   1.0000   1.0000   1.0000   1.0000   1.0000   1.0000
     1.0000   1.0000   1.0000   1.0000   1.0000   1.0000   1.0000   1.0000
     1.0000   1.0000   1.0000   1.0000   1.0000   1.0000   1.0000   1.0000
     1.0000   1.0000   1.0000   1.0000   1.0000   1.0000   1.0000   1.0000
     1.0000   1.0000   1.0000   1.0000   1.0000   1.0000   1.0000   1.0000
     1.0000   1.0000   1.0000   1.0000   1.0000   1.0000   1.0000   1.0000
     1.0000   1.0000   1.0000   1.0000   1.0000   1.0000   1.0000   1.0000
     1.0000   1.0000   1.0000   1.0000   1.0000   1.0000   1.0000   1.0000
     1.0000   1.0000   1.0000   1.0000   1.0000   1.0000   1.0000   1.0000
     1.0000   1.0000   1.0000   1.0000   1.0000   1.0000   1.0000   0.0000
     0.0000   0.0000   0.0000   0.0000   0.0000   0.0000   0.0000   0.0000
     0.0000   0.0000   0.0000   0.0000   0.0000   0.0000   0.0000   0.0000
     0.0000   0.0000   0.0000   0.0000   0.0000   0.0000   0.0000   0.0000
     0.0000   0.0000   0.0000   0.0000

          k = 0.2500 0.4330 0.0000 ( 11094 PWs)   bands (ev):

   -28.9494 -11.6466 -11.5977 -11.5907 -10.4489 -10.2666 -10.2415 -10.1723
   -10.1342 -10.0801 -10.0505  -9.9957  -9.9359  -9.9204  -9.8974  -9.8756
    -9.6372  -8.3923  -8.3467  -8.2499   1.3113   1.3290   1.3366   1.3472
     1.3820   1.4040   1.4631   1.4861   1.5078   1.5803   1.6128   1.6549
     1.6899   1.7218   1.7552   1.8094   1.8146   1.8362   1.8453   1.8733
     1.8897   1.8964   1.9058   1.9148   1.9441   1.9499   1.9566   1.9685
     1.9969   2.0218   2.0506   2.0525   2.0643   2.0843   2.1039   2.1448
     2.1731   2.2104   2.2466   2.2870   2.3333   2.3810   2.4374   2.4557
     2.5592   2.6245   2.6859   2.6932   2.7169   2.7671   2.7874   2.8140
     2.8303   2.8498   2.8565   2.8646   2.8951   2.8992   2.9187   2.9255
     2.9318   2.9439   2.9486   2.9613   2.9833   2.9855   3.0005   3.0170
     3.0304   3.0380   3.1383   3.1471   3.1758   3.1949   3.2295   3.2660
     3.4109   3.5092   3.5443   3.6091   3.7089   3.8159   3.9373   4.1381
     4.2321   4.2911   4.3532   4.4044   4.4734   4.6844   4.7493   4.8095
     4.8776   5.0248   5.0939   5.1673   5.2703   5.3207   5.3973   5.5483
     5.6214   5.6906   5.7308   5.7525   5.8568   5.9137   5.9315   5.9815
     6.0055   6.0377   6.0619   6.0831   6.1789   6.2728   6.3890   6.3944
     6.3971   6.4692   6.5209   6.5504   6.6794   6.8344   6.8803  10.2213
    11.6090  11.6825  11.8443  11.9940  12.6459  12.7671  12.7863  12.9222
    14.0225  14.2840  14.3316  14.5171  14.6348  14.7244  14.7621  14.9817
    15.1844  15.3198  15.4293  15.5676  15.6424  15.7189  15.9500  16.0308
    16.1539  16.2066  16.2460  16.3052

     occupation numbers 
     1.0000   1.0000   1.0000   1.0000   1.0000   1.0000   1.0000   1.0000
     1.0000   1.0000   1.0000   1.0000   1.0000   1.0000   1.0000   1.0000
     1.0000   1.0000   1.0000   1.0000   1.0000   1.0000   1.0000   1.0000
     1.0000   1.0000   1.0000   1.0000   1.0000   1.0000   1.0000   1.0000
     1.0000   1.0000   1.0000   1.0000   1.0000   1.0000   1.0000   1.0000
     1.0000   1.0000   1.0000   1.0000   1.0000   1.0000   1.0000   1.0000
     1.0000   1.0000   1.0000   1.0000   1.0000   1.0000   1.0000   1.0000
     1.0000   1.0000   1.0000   1.0000   1.0000   1.0000   1.0000   1.0000
     1.0000   1.0000   1.0000   1.0000   1.0000   1.0000   1.0000   1.0000
     1.0000   1.0000   1.0000   1.0000   1.0000   1.0000   1.0000   1.0000
     1.0000   1.0000   1.0000   1.0000   1.0000   1.0000   1.0000   1.0000
     1.0000   1.0000   1.0000   1.0000   1.0000   1.0000   1.0000   1.0000
     1.0000   1.0000   1.0000   1.0000   1.0000   1.0000   1.0000   1.0000
     1.0000   1.0000   1.0000   1.0000   1.0000   1.0000   1.0000   1.0000
     1.0000   1.0000   1.0000   1.0000   1.0000   1.0000   1.0000   1.0000
     1.0000   1.0000   1.0000   1.0000   1.0000   1.0000   1.0000   1.0000
     1.0000   1.0000   1.0000   1.0000   1.0000   1.0000   1.0000   1.0000
     1.0000   1.0000   1.0000   1.0000   1.0000   1.0000   1.0000   0.0000
     0.0000   0.0000   0.0000   0.0000   0.0000   0.0000   0.0000   0.0000
     0.0000   0.0000   0.0000   0.0000   0.0000   0.0000   0.0000   0.0000
     0.0000   0.0000   0.0000   0.0000   0.0000   0.0000   0.0000   0.0000
     0.0000   0.0000   0.0000   0.0000

          k = 0.2500 0.4330 0.1554 ( 11095 PWs)   bands (ev):

   -28.9494 -11.6465 -11.5977 -11.5912 -10.4322 -10.2917 -10.2349 -10.1938
   -10.1183 -10.0713 -10.0493  -9.9896  -9.9375  -9.9216  -9.9070  -9.8744
    -9.6342  -8.3924  -8.3466  -8.2499   1.3228   1.3431   1.3693   1.3919
     1.4102   1.4336   1.4536   1.4938   1.5019   1.5977   1.6240   1.6550
     1.6765   1.6916   1.7529   1.8021   1.8137   1.8160   1.8326   1.8571
     1.8723   1.8894   1.8941   1.9166   1.9249   1.9480   1.9641   1.9857
     2.0032   2.0190   2.0277   2.0561   2.0636   2.0857   2.1051   2.1184
     2.1637   2.1882   2.2349   2.2600   2.2867   2.3357   2.3756   2.4103
     2.5295   2.6146   2.6938   2.7051   2.7548   2.7749   2.7922   2.8188
     2.8293   2.8437   2.8564   2.8690   2.8733   2.8880   2.9008   2.9078
     2.9216   2.9566   2.9659   2.9774   2.9849   3.0128   3.0227   3.0323
     3.0414   3.0553   3.0920   3.1343   3.1430   3.1758   3.2345   3.4802
     3.5144   3.5524   3.6014   3.6478   3.7284   3.8697   3.8997   4.1028
     4.1981   4.2775   4.3729   4.4193   4.4714   4.5670   4.7087   4.8561
     4.9172   5.1037   5.1976   5.2286   5.2820   5.3329   5.3910   5.4371
     5.4679   5.5567   5.6205   5.6953   5.7634   5.8170   5.8486   5.9398
     6.0230   6.0637   6.1254   6.2597   6.2809   6.3152   6.3569   6.4052
     6.4428   6.4836   6.5658   6.5974   6.6794   6.8322   6.8575  10.3390
    11.2212  11.6735  11.7769  12.2026  12.3570  12.6225  13.3167  13.4115
    13.8131  14.1804  14.3242  14.4375  14.4906  14.6777  14.8008  14.9358
    15.1974  15.3831  15.4595  15.5506  15.7108  15.7894  15.9211  15.9582
    16.0777  16.1946  16.2560  16.3193

     occupation numbers 
     1.0000   1.0000   1.0000   1.0000   1.0000   1.0000   1.0000   1.0000
     1.0000   1.0000   1.0000   1.0000   1.0000   1.0000   1.0000   1.0000
     1.0000   1.0000   1.0000   1.0000   1.0000   1.0000   1.0000   1.0000
     1.0000   1.0000   1.0000   1.0000   1.0000   1.0000   1.0000   1.0000
     1.0000   1.0000   1.0000   1.0000   1.0000   1.0000   1.0000   1.0000
     1.0000   1.0000   1.0000   1.0000   1.0000   1.0000   1.0000   1.0000
     1.0000   1.0000   1.0000   1.0000   1.0000   1.0000   1.0000   1.0000
     1.0000   1.0000   1.0000   1.0000   1.0000   1.0000   1.0000   1.0000
     1.0000   1.0000   1.0000   1.0000   1.0000   1.0000   1.0000   1.0000
     1.0000   1.0000   1.0000   1.0000   1.0000   1.0000   1.0000   1.0000
     1.0000   1.0000   1.0000   1.0000   1.0000   1.0000   1.0000   1.0000
     1.0000   1.0000   1.0000   1.0000   1.0000   1.0000   1.0000   1.0000
     1.0000   1.0000   1.0000   1.0000   1.0000   1.0000   1.0000   1.0000
     1.0000   1.0000   1.0000   1.0000   1.0000   1.0000   1.0000   1.0000
     1.0000   1.0000   1.0000   1.0000   1.0000   1.0000   1.0000   1.0000
     1.0000   1.0000   1.0000   1.0000   1.0000   1.0000   1.0000   1.0000
     1.0000   1.0000   1.0000   1.0000   1.0000   1.0000   1.0000   1.0000
     1.0000   1.0000   1.0000   1.0000   1.0000   1.0000   1.0000   0.0000
     0.0000   0.0000   0.0000   0.0000   0.0000   0.0000   0.0000   0.0000
     0.0000   0.0000   0.0000   0.0000   0.0000   0.0000   0.0000   0.0000
     0.0000   0.0000   0.0000   0.0000   0.0000   0.0000   0.0000   0.0000
     0.0000   0.0000   0.0000   0.0000

          k = 0.2500 0.4330-0.3107 ( 11098 PWs)   bands (ev):

   -28.9494 -11.6465 -11.5976 -11.5917 -10.4065 -10.3288 -10.2244 -10.1976
   -10.1242 -10.0830 -10.0130  -9.9913  -9.9413  -9.9236  -9.9175  -9.8733
    -9.6312  -8.3925  -8.3465  -8.2499   1.3558   1.3677   1.3891   1.4106
     1.4193   1.4397   1.5182   1.5302   1.5600   1.5785   1.5812   1.6178
     1.6478   1.6795   1.7835   1.7896   1.8066   1.8117   1.8199   1.8401
     1.8515   1.8678   1.8895   1.9021   1.9133   1.9393   1.9628   1.9748
     1.9945   2.0052   2.0172   2.0363   2.0633   2.0944   2.1266   2.1401
     2.1638   2.1826   2.1923   2.2084   2.2397   2.2960   2.3574   2.3888
     2.5088   2.5945   2.7210   2.7302   2.7699   2.7794   2.7954   2.8073
     2.8166   2.8341   2.8510   2.8666   2.8701   2.8760   2.8912   2.8970
     2.9210   2.9717   2.9753   2.9899   2.9978   3.0127   3.0257   3.0320
     3.0616   3.0899   3.1024   3.1154   3.1330   3.1750   3.1951   3.4971
     3.5667   3.6645   3.7509   3.7699   3.8226   3.8878   3.9545   3.9651
     4.0930   4.2177   4.3182   4.4214   4.5399   4.5801   4.6810   4.9625
     5.0005   5.0456   5.1040   5.2599   5.3336   5.3773   5.3801   5.4117
     5.4291   5.4694   5.5040   5.5289   5.6679   5.7423   5.9475   5.9703
     5.9987   6.0492   6.1372   6.2544   6.2714   6.3191   6.3989   6.4610
     6.5034   6.5389   6.5928   6.6502   6.7048   6.7980   6.8315  10.6258
    10.7525  11.7966  11.8639  11.9229  12.1205  13.1937  13.3616  13.8515
    13.8933  13.9855  14.0432  14.2191  14.3605  14.6965  14.8473  14.9587
    15.1365  15.4293  15.4951  15.6678  15.7664  15.8355  15.8611  15.9034
    15.9354  16.1275  16.2270  16.2760

     occupation numbers 
     1.0000   1.0000   1.0000   1.0000   1.0000   1.0000   1.0000   1.0000
     1.0000   1.0000   1.0000   1.0000   1.0000   1.0000   1.0000   1.0000
     1.0000   1.0000   1.0000   1.0000   1.0000   1.0000   1.0000   1.0000
     1.0000   1.0000   1.0000   1.0000   1.0000   1.0000   1.0000   1.0000
     1.0000   1.0000   1.0000   1.0000   1.0000   1.0000   1.0000   1.0000
     1.0000   1.0000   1.0000   1.0000   1.0000   1.0000   1.0000   1.0000
     1.0000   1.0000   1.0000   1.0000   1.0000   1.0000   1.0000   1.0000
     1.0000   1.0000   1.0000   1.0000   1.0000   1.0000   1.0000   1.0000
     1.0000   1.0000   1.0000   1.0000   1.0000   1.0000   1.0000   1.0000
     1.0000   1.0000   1.0000   1.0000   1.0000   1.0000   1.0000   1.0000
     1.0000   1.0000   1.0000   1.0000   1.0000   1.0000   1.0000   1.0000
     1.0000   1.0000   1.0000   1.0000   1.0000   1.0000   1.0000   1.0000
     1.0000   1.0000   1.0000   1.0000   1.0000   1.0000   1.0000   1.0000
     1.0000   1.0000   1.0000   1.0000   1.0000   1.0000   1.0000   1.0000
     1.0000   1.0000   1.0000   1.0000   1.0000   1.0000   1.0000   1.0000
     1.0000   1.0000   1.0000   1.0000   1.0000   1.0000   1.0000   1.0000
     1.0000   1.0000   1.0000   1.0000   1.0000   1.0000   1.0000   1.0000
     1.0000   1.0000   1.0000   1.0000   1.0000   1.0000   1.0000   0.0000
     0.0000   0.0000   0.0000   0.0000   0.0000   0.0000   0.0000   0.0000
     0.0000   0.0000   0.0000   0.0000   0.0000   0.0000   0.0000   0.0000
     0.0000   0.0000   0.0000   0.0000   0.0000   0.0000   0.0000   0.0000
     0.0000   0.0000   0.0000   0.0000

          k = 0.0000-0.2887 0.1554 ( 11105 PWs)   bands (ev):

   -28.9494 -11.6246 -11.5946 -11.5895 -10.5702 -10.3827 -10.1876 -10.1226
   -10.0658 -10.0538 -10.0377  -9.9828  -9.9640  -9.9151  -9.8813  -9.8698
    -9.6586  -8.3998  -8.2979  -8.2564   1.2680   1.3302   1.3649   1.3661
     1.3988   1.4175   1.4235   1.4536   1.4933   1.5005   1.5454   1.5732
     1.6753   1.6889   1.7298   1.7356   1.7506   1.7524   1.7799   1.8183
     1.8425   1.8708   1.8842   1.9077   1.9313   1.9400   1.9792   2.0146
     2.0535   2.0586   2.0964   2.1100   2.1306   2.1709   2.1776   2.1898
     2.2082   2.2242   2.2291   2.2660   2.2990   2.3159   2.3411   2.3990
     2.4753   2.6873   2.7162   2.7308   2.7848   2.8096   2.8224   2.8437
     2.8759   2.8773   2.8969   2.9031   2.9217   2.9282   2.9295   2.9406
     2.9444   2.9723   2.9866   2.9904   3.0102   3.0232   3.0394   3.0409
     3.0566   3.0619   3.0951   3.1032   3.1806   3.1901   3.2059   3.3717
     3.4016   3.4497   3.5510   3.5673   3.6470   3.7274   3.7568   3.8889
     3.9501   4.0334   4.0931   4.3011   4.4333   4.5832   4.7118   4.9357
     4.9803   5.0242   5.1410   5.2356   5.3678   5.3896   5.5604   5.5854
     5.6492   5.7338   5.8241   5.8361   5.9745   5.9802   6.0899   6.1136
     6.1495   6.1817   6.1950   6.2636   6.2752   6.3239   6.3440   6.4224
     6.4922   6.5192   6.5725   6.7140   6.8758   6.9814   7.0825   9.3447
    10.5084  11.8920  12.0923  12.3822  12.8944  12.9553  13.0770  13.1430
    13.3046  13.4568  13.7614  13.8658  14.3033  14.4007  14.5230  14.8646
    14.9635  15.2247  15.4485  15.4543  15.5458  15.5773  15.6368  15.8036
    15.8412  15.8443  15.9005  16.2889

     occupation numbers 
     1.0000   1.0000   1.0000   1.0000   1.0000   1.0000   1.0000   1.0000
     1.0000   1.0000   1.0000   1.0000   1.0000   1.0000   1.0000   1.0000
     1.0000   1.0000   1.0000   1.0000   1.0000   1.0000   1.0000   1.0000
     1.0000   1.0000   1.0000   1.0000   1.0000   1.0000   1.0000   1.0000
     1.0000   1.0000   1.0000   1.0000   1.0000   1.0000   1.0000   1.0000
     1.0000   1.0000   1.0000   1.0000   1.0000   1.0000   1.0000   1.0000
     1.0000   1.0000   1.0000   1.0000   1.0000   1.0000   1.0000   1.0000
     1.0000   1.0000   1.0000   1.0000   1.0000   1.0000   1.0000   1.0000
     1.0000   1.0000   1.0000   1.0000   1.0000   1.0000   1.0000   1.0000
     1.0000   1.0000   1.0000   1.0000   1.0000   1.0000   1.0000   1.0000
     1.0000   1.0000   1.0000   1.0000   1.0000   1.0000   1.0000   1.0000
     1.0000   1.0000   1.0000   1.0000   1.0000   1.0000   1.0000   1.0000
     1.0000   1.0000   1.0000   1.0000   1.0000   1.0000   1.0000   1.0000
     1.0000   1.0000   1.0000   1.0000   1.0000   1.0000   1.0000   1.0000
     1.0000   1.0000   1.0000   1.0000   1.0000   1.0000   1.0000   1.0000
     1.0000   1.0000   1.0000   1.0000   1.0000   1.0000   1.0000   1.0000
     1.0000   1.0000   1.0000   1.0000   1.0000   1.0000   1.0000   1.0000
     1.0000   1.0000   1.0000   1.0000   1.0000   1.0000   1.0000   0.0000
     0.0000   0.0000   0.0000   0.0000   0.0000   0.0000   0.0000   0.0000
     0.0000   0.0000   0.0000   0.0000   0.0000   0.0000   0.0000   0.0000
     0.0000   0.0000   0.0000   0.0000   0.0000   0.0000   0.0000   0.0000
     0.0000   0.0000   0.0000   0.0000

     the Fermi energy is     7.7314 ev

!    total energy              =   -2878.27803482 Ry
     estimated scf accuracy    <          2.7E-09 Ry
     smearing contrib. (-TS)   =      -0.00000000 Ry
     internal energy E=F+TS    =   -2878.27803482 Ry

     The total energy is F=E-TS. E is the sum of the following terms:
     one-electron contribution =   -1174.94632703 Ry
     hartree contribution      =     907.61795409 Ry
     xc contribution           =    -842.07956690 Ry
     ewald contribution        =   -1708.87221002 Ry
     one-center paw contrib.   =     -59.99788496 Ry
      -> PAW hartree energy AE =      48.94944104 Ry
      -> PAW hartree energy PS =     -48.72137837 Ry
      -> PAW xc energy AE      =     -71.69287837 Ry
      -> PAW xc energy PS      =      11.46693073 Ry
      -> total E_H with PAW    =     907.84601677 Ry
      -> total E_XC with PAW   =    -902.30551454 Ry

     convergence has been achieved in  15 iterations

     Writing output data file ./tmp/zno_doped.save/

     init_run     :     35.35s CPU     36.28s WALL (       1 calls)
     electrons    :   1790.67s CPU   1806.07s WALL (       1 calls)

     Called by init_run:
     wfcinit      :     33.71s CPU     34.24s WALL (       1 calls)
     wfcinit:atom :      0.07s CPU      0.07s WALL (      13 calls)
     wfcinit:wfcr :     33.26s CPU     33.78s WALL (      13 calls)
     potinit      :      0.30s CPU      0.36s WALL (       1 calls)
     hinit0       :      0.48s CPU      0.50s WALL (       1 calls)

     Called by electrons:
     c_bands      :   1635.37s CPU   1643.11s WALL (      15 calls)
     sum_band     :    137.03s CPU    141.87s WALL (      15 calls)
     v_of_rho     :      1.64s CPU      1.76s WALL (      16 calls)
     v_h          :      0.11s CPU      0.12s WALL (      16 calls)
     v_xc         :      1.53s CPU      1.64s WALL (      16 calls)
     newd         :     15.10s CPU     18.09s WALL (      16 calls)
     PAW_pot      :      1.50s CPU      1.52s WALL (      16 calls)
     mix_rho      :      0.57s CPU      0.59s WALL (      15 calls)

     Called by c_bands:
     init_us_2    :      3.08s CPU      3.10s WALL (     403 calls)
     cegterg      :   1626.01s CPU   1633.55s WALL (     195 calls)

     Called by sum_band:
     sum_band:wei :      0.01s CPU      0.01s WALL (      15 calls)
     sum_band:loo :    121.47s CPU    121.96s WALL (      15 calls)
     sum_band:buf :      0.83s CPU      0.83s WALL (     195 calls)
     sum_band:ini :      1.42s CPU      1.42s WALL (     195 calls)
     sum_band:cal :    108.60s CPU    108.56s WALL (     195 calls)
     sum_band:bec :      0.21s CPU      0.21s WALL (     195 calls)
     addusdens    :     15.26s CPU     19.58s WALL (      15 calls)
     addusd:skk   :      0.12s CPU      0.18s WALL (      45 calls)
     addusd:dgemm :     11.41s CPU     15.35s WALL (      45 calls)
     addusd:qvan2 :      3.53s CPU      3.55s WALL (      45 calls)

     Called by *egterg:
     cdiaghg      :     74.12s CPU     74.08s WALL (    1176 calls)
     cegterg:over :    182.42s CPU    182.57s WALL (     981 calls)
     cegterg:upda :     83.82s CPU     84.36s WALL (     981 calls)
     cegterg:last :    282.49s CPU    282.98s WALL (     480 calls)
     cdiaghg:chol :      4.10s CPU      4.12s WALL (    1176 calls)
     cdiaghg:inve :      0.31s CPU      0.31s WALL (    1176 calls)
     cdiaghg:para :     24.68s CPU     25.03s WALL (    2352 calls)
     h_psi        :    689.74s CPU    694.47s WALL (    1189 calls)
     s_psi        :    309.46s CPU    309.81s WALL (    1189 calls)
     g_psi        :      0.99s CPU      1.00s WALL (     981 calls)

     Called by h_psi:
     h_psi:calbec :    317.46s CPU    318.24s WALL (    1189 calls)
     vloc_psi     :     57.47s CPU     60.97s WALL (    1189 calls)
     add_vuspsi   :    313.48s CPU    312.93s WALL (    1189 calls)

     General routines
     calbec       :    426.05s CPU    426.80s WALL (    1384 calls)
     fft          :      0.87s CPU      0.97s WALL (     206 calls)
     ffts         :      0.03s CPU      0.03s WALL (      31 calls)
     fftw         :     58.99s CPU     62.50s WALL (  226484 calls)
     interpolate  :      0.11s CPU      0.11s WALL (      16 calls)

     Parallel routines
     fft_scatt_xy :      9.57s CPU     10.13s WALL (  226721 calls)
     fft_scatt_yz :     14.93s CPU     15.91s WALL (  226721 calls)

     PAW routines
     PAW_pot      :      1.50s CPU      1.52s WALL (      16 calls)
     PAW_symme    :      0.01s CPU      0.01s WALL (      31 calls)

     PWSCF        :  30m26.30s CPU  30m42.97s WALL


   This run was terminated on:  20:17:33  16Apr2026            

=------------------------------------------------------------------------------=
   JOB DONE.
=------------------------------------------------------------------------------=
